# vtk DataFile Version 2.0
TestTestTest
ASCII

DATASET STRUCTURED_GRID
DIMENSIONS 11 21 11
POINTS 2541 float
0 0 0
0.5 0 0
1 0 0
1.5 0 0
2 0 0
2.5 0 0
3 0 0
3.5 0 0
4 0 0
4.5 0 0
5 0 0
0 0.05 0
0.5 0.05 0
1 0.05 0
1.5 0.05 0
2 0.05 0
2.5 0.05 0
3 0.05 0
3.5 0.05 0
4 0.05 0
4.5 0.05 0
5 0.05 0
0 0.1 0
0.5 0.1 0
1 0.1 0
1.5 0.1 0
2 0.1 0
2.5 0.1 0
3 0.1 0
3.5 0.1 0
4 0.1 0
4.5 0.1 0
5 0.1 0
0 0.15 0
0.5 0.15 0
1 0.15 0
1.5 0.15 0
2 0.15 0
2.5 0.15 0
3 0.15 0
3.5 0.15 0
4 0.15 0
4.5 0.15 0
5 0.15 0
0 0.2 0
0.5 0.2 0
1 0.2 0
1.5 0.2 0
2 0.2 0
2.5 0.2 0
3 0.2 0
3.5 0.2 0
4 0.2 0
4.5 0.2 0
5 0.2 0
0 0.25 0
0.5 0.25 0
1 0.25 0
1.5 0.25 0
2 0.25 0
2.5 0.25 0
3 0.25 0
3.5 0.25 0
4 0.25 0
4.5 0.25 0
5 0.25 0
0 0.3 0
0.5 0.3 0
1 0.3 0
1.5 0.3 0
2 0.3 0
2.5 0.3 0
3 0.3 0
3.5 0.3 0
4 0.3 0
4.5 0.3 0
5 0.3 0
0 0.35 0
0.5 0.35 0
1 0.35 0
1.5 0.35 0
2 0.35 0
2.5 0.35 0
3 0.35 0
3.5 0.35 0
4 0.35 0
4.5 0.35 0
5 0.35 0
0 0.4 0
0.5 0.4 0
1 0.4 0
1.5 0.4 0
2 0.4 0
2.5 0.4 0
3 0.4 0
3.5 0.4 0
4 0.4 0
4.5 0.4 0
5 0.4 0
0 0.45 0
0.5 0.45 0
1 0.45 0
1.5 0.45 0
2 0.45 0
2.5 0.45 0
3 0.45 0
3.5 0.45 0
4 0.45 0
4.5 0.45 0
5 0.45 0
0 0.5 0
0.5 0.5 0
1 0.5 0
1.5 0.5 0
2 0.5 0
2.5 0.5 0
3 0.5 0
3.5 0.5 0
4 0.5 0
4.5 0.5 0
5 0.5 0
0 0.55 0
0.5 0.55 0
1 0.55 0
1.5 0.55 0
2 0.55 0
2.5 0.55 0
3 0.55 0
3.5 0.55 0
4 0.55 0
4.5 0.55 0
5 0.55 0
0 0.6 0
0.5 0.6 0
1 0.6 0
1.5 0.6 0
2 0.6 0
2.5 0.6 0
3 0.6 0
3.5 0.6 0
4 0.6 0
4.5 0.6 0
5 0.6 0
0 0.65 0
0.5 0.65 0
1 0.65 0
1.5 0.65 0
2 0.65 0
2.5 0.65 0
3 0.65 0
3.5 0.65 0
4 0.65 0
4.5 0.65 0
5 0.65 0
0 0.7 0
0.5 0.7 0
1 0.7 0
1.5 0.7 0
2 0.7 0
2.5 0.7 0
3 0.7 0
3.5 0.7 0
4 0.7 0
4.5 0.7 0
5 0.7 0
0 0.75 0
0.5 0.75 0
1 0.75 0
1.5 0.75 0
2 0.75 0
2.5 0.75 0
3 0.75 0
3.5 0.75 0
4 0.75 0
4.5 0.75 0
5 0.75 0
0 0.8 0
0.5 0.8 0
1 0.8 0
1.5 0.8 0
2 0.8 0
2.5 0.8 0
3 0.8 0
3.5 0.8 0
4 0.8 0
4.5 0.8 0
5 0.8 0
0 0.85 0
0.5 0.85 0
1 0.85 0
1.5 0.85 0
2 0.85 0
2.5 0.85 0
3 0.85 0
3.5 0.85 0
4 0.85 0
4.5 0.85 0
5 0.85 0
0 0.9 0
0.5 0.9 0
1 0.9 0
1.5 0.9 0
2 0.9 0
2.5 0.9 0
3 0.9 0
3.5 0.9 0
4 0.9 0
4.5 0.9 0
5 0.9 0
0 0.95 0
0.5 0.95 0
1 0.95 0
1.5 0.95 0
2 0.95 0
2.5 0.95 0
3 0.95 0
3.5 0.95 0
4 0.95 0
4.5 0.95 0
5 0.95 0
0 1 0
0.5 1 0
1 1 0
1.5 1 0
2 1 0
2.5 1 0
3 1 0
3.5 1 0
4 1 0
4.5 1 0
5 1 0
0 0 0.1
0.5 0 0.1
1 0 0.1
1.5 0 0.1
2 0 0.1
2.5 0 0.1
3 0 0.1
3.5 0 0.1
4 0 0.1
4.5 0 0.1
5 0 0.1
0 0.05 0.1
0.5 0.05 0.1
1 0.05 0.1
1.5 0.05 0.1
2 0.05 0.1
2.5 0.05 0.1
3 0.05 0.1
3.5 0.05 0.1
4 0.05 0.1
4.5 0.05 0.1
5 0.05 0.1
0 0.1 0.1
0.5 0.1 0.1
1 0.1 0.1
1.5 0.1 0.1
2 0.1 0.1
2.5 0.1 0.1
3 0.1 0.1
3.5 0.1 0.1
4 0.1 0.1
4.5 0.1 0.1
5 0.1 0.1
0 0.15 0.1
0.5 0.15 0.1
1 0.15 0.1
1.5 0.15 0.1
2 0.15 0.1
2.5 0.15 0.1
3 0.15 0.1
3.5 0.15 0.1
4 0.15 0.1
4.5 0.15 0.1
5 0.15 0.1
0 0.2 0.1
0.5 0.2 0.1
1 0.2 0.1
1.5 0.2 0.1
2 0.2 0.1
2.5 0.2 0.1
3 0.2 0.1
3.5 0.2 0.1
4 0.2 0.1
4.5 0.2 0.1
5 0.2 0.1
0 0.25 0.1
0.5 0.25 0.1
1 0.25 0.1
1.5 0.25 0.1
2 0.25 0.1
2.5 0.25 0.1
3 0.25 0.1
3.5 0.25 0.1
4 0.25 0.1
4.5 0.25 0.1
5 0.25 0.1
0 0.3 0.1
0.5 0.3 0.1
1 0.3 0.1
1.5 0.3 0.1
2 0.3 0.1
2.5 0.3 0.1
3 0.3 0.1
3.5 0.3 0.1
4 0.3 0.1
4.5 0.3 0.1
5 0.3 0.1
0 0.35 0.1
0.5 0.35 0.1
1 0.35 0.1
1.5 0.35 0.1
2 0.35 0.1
2.5 0.35 0.1
3 0.35 0.1
3.5 0.35 0.1
4 0.35 0.1
4.5 0.35 0.1
5 0.35 0.1
0 0.4 0.1
0.5 0.4 0.1
1 0.4 0.1
1.5 0.4 0.1
2 0.4 0.1
2.5 0.4 0.1
3 0.4 0.1
3.5 0.4 0.1
4 0.4 0.1
4.5 0.4 0.1
5 0.4 0.1
0 0.45 0.1
0.5 0.45 0.1
1 0.45 0.1
1.5 0.45 0.1
2 0.45 0.1
2.5 0.45 0.1
3 0.45 0.1
3.5 0.45 0.1
4 0.45 0.1
4.5 0.45 0.1
5 0.45 0.1
0 0.5 0.1
0.5 0.5 0.1
1 0.5 0.1
1.5 0.5 0.1
2 0.5 0.1
2.5 0.5 0.1
3 0.5 0.1
3.5 0.5 0.1
4 0.5 0.1
4.5 0.5 0.1
5 0.5 0.1
0 0.55 0.1
0.5 0.55 0.1
1 0.55 0.1
1.5 0.55 0.1
2 0.55 0.1
2.5 0.55 0.1
3 0.55 0.1
3.5 0.55 0.1
4 0.55 0.1
4.5 0.55 0.1
5 0.55 0.1
0 0.6 0.1
0.5 0.6 0.1
1 0.6 0.1
1.5 0.6 0.1
2 0.6 0.1
2.5 0.6 0.1
3 0.6 0.1
3.5 0.6 0.1
4 0.6 0.1
4.5 0.6 0.1
5 0.6 0.1
0 0.65 0.1
0.5 0.65 0.1
1 0.65 0.1
1.5 0.65 0.1
2 0.65 0.1
2.5 0.65 0.1
3 0.65 0.1
3.5 0.65 0.1
4 0.65 0.1
4.5 0.65 0.1
5 0.65 0.1
0 0.7 0.1
0.5 0.7 0.1
1 0.7 0.1
1.5 0.7 0.1
2 0.7 0.1
2.5 0.7 0.1
3 0.7 0.1
3.5 0.7 0.1
4 0.7 0.1
4.5 0.7 0.1
5 0.7 0.1
0 0.75 0.1
0.5 0.75 0.1
1 0.75 0.1
1.5 0.75 0.1
2 0.75 0.1
2.5 0.75 0.1
3 0.75 0.1
3.5 0.75 0.1
4 0.75 0.1
4.5 0.75 0.1
5 0.75 0.1
0 0.8 0.1
0.5 0.8 0.1
1 0.8 0.1
1.5 0.8 0.1
2 0.8 0.1
2.5 0.8 0.1
3 0.8 0.1
3.5 0.8 0.1
4 0.8 0.1
4.5 0.8 0.1
5 0.8 0.1
0 0.85 0.1
0.5 0.85 0.1
1 0.85 0.1
1.5 0.85 0.1
2 0.85 0.1
2.5 0.85 0.1
3 0.85 0.1
3.5 0.85 0.1
4 0.85 0.1
4.5 0.85 0.1
5 0.85 0.1
0 0.9 0.1
0.5 0.9 0.1
1 0.9 0.1
1.5 0.9 0.1
2 0.9 0.1
2.5 0.9 0.1
3 0.9 0.1
3.5 0.9 0.1
4 0.9 0.1
4.5 0.9 0.1
5 0.9 0.1
0 0.95 0.1
0.5 0.95 0.1
1 0.95 0.1
1.5 0.95 0.1
2 0.95 0.1
2.5 0.95 0.1
3 0.95 0.1
3.5 0.95 0.1
4 0.95 0.1
4.5 0.95 0.1
5 0.95 0.1
0 1 0.1
0.5 1 0.1
1 1 0.1
1.5 1 0.1
2 1 0.1
2.5 1 0.1
3 1 0.1
3.5 1 0.1
4 1 0.1
4.5 1 0.1
5 1 0.1
0 0 0.2
0.5 0 0.2
1 0 0.2
1.5 0 0.2
2 0 0.2
2.5 0 0.2
3 0 0.2
3.5 0 0.2
4 0 0.2
4.5 0 0.2
5 0 0.2
0 0.05 0.2
0.5 0.05 0.2
1 0.05 0.2
1.5 0.05 0.2
2 0.05 0.2
2.5 0.05 0.2
3 0.05 0.2
3.5 0.05 0.2
4 0.05 0.2
4.5 0.05 0.2
5 0.05 0.2
0 0.1 0.2
0.5 0.1 0.2
1 0.1 0.2
1.5 0.1 0.2
2 0.1 0.2
2.5 0.1 0.2
3 0.1 0.2
3.5 0.1 0.2
4 0.1 0.2
4.5 0.1 0.2
5 0.1 0.2
0 0.15 0.2
0.5 0.15 0.2
1 0.15 0.2
1.5 0.15 0.2
2 0.15 0.2
2.5 0.15 0.2
3 0.15 0.2
3.5 0.15 0.2
4 0.15 0.2
4.5 0.15 0.2
5 0.15 0.2
0 0.2 0.2
0.5 0.2 0.2
1 0.2 0.2
1.5 0.2 0.2
2 0.2 0.2
2.5 0.2 0.2
3 0.2 0.2
3.5 0.2 0.2
4 0.2 0.2
4.5 0.2 0.2
5 0.2 0.2
0 0.25 0.2
0.5 0.25 0.2
1 0.25 0.2
1.5 0.25 0.2
2 0.25 0.2
2.5 0.25 0.2
3 0.25 0.2
3.5 0.25 0.2
4 0.25 0.2
4.5 0.25 0.2
5 0.25 0.2
0 0.3 0.2
0.5 0.3 0.2
1 0.3 0.2
1.5 0.3 0.2
2 0.3 0.2
2.5 0.3 0.2
3 0.3 0.2
3.5 0.3 0.2
4 0.3 0.2
4.5 0.3 0.2
5 0.3 0.2
0 0.35 0.2
0.5 0.35 0.2
1 0.35 0.2
1.5 0.35 0.2
2 0.35 0.2
2.5 0.35 0.2
3 0.35 0.2
3.5 0.35 0.2
4 0.35 0.2
4.5 0.35 0.2
5 0.35 0.2
0 0.4 0.2
0.5 0.4 0.2
1 0.4 0.2
1.5 0.4 0.2
2 0.4 0.2
2.5 0.4 0.2
3 0.4 0.2
3.5 0.4 0.2
4 0.4 0.2
4.5 0.4 0.2
5 0.4 0.2
0 0.45 0.2
0.5 0.45 0.2
1 0.45 0.2
1.5 0.45 0.2
2 0.45 0.2
2.5 0.45 0.2
3 0.45 0.2
3.5 0.45 0.2
4 0.45 0.2
4.5 0.45 0.2
5 0.45 0.2
0 0.5 0.2
0.5 0.5 0.2
1 0.5 0.2
1.5 0.5 0.2
2 0.5 0.2
2.5 0.5 0.2
3 0.5 0.2
3.5 0.5 0.2
4 0.5 0.2
4.5 0.5 0.2
5 0.5 0.2
0 0.55 0.2
0.5 0.55 0.2
1 0.55 0.2
1.5 0.55 0.2
2 0.55 0.2
2.5 0.55 0.2
3 0.55 0.2
3.5 0.55 0.2
4 0.55 0.2
4.5 0.55 0.2
5 0.55 0.2
0 0.6 0.2
0.5 0.6 0.2
1 0.6 0.2
1.5 0.6 0.2
2 0.6 0.2
2.5 0.6 0.2
3 0.6 0.2
3.5 0.6 0.2
4 0.6 0.2
4.5 0.6 0.2
5 0.6 0.2
0 0.65 0.2
0.5 0.65 0.2
1 0.65 0.2
1.5 0.65 0.2
2 0.65 0.2
2.5 0.65 0.2
3 0.65 0.2
3.5 0.65 0.2
4 0.65 0.2
4.5 0.65 0.2
5 0.65 0.2
0 0.7 0.2
0.5 0.7 0.2
1 0.7 0.2
1.5 0.7 0.2
2 0.7 0.2
2.5 0.7 0.2
3 0.7 0.2
3.5 0.7 0.2
4 0.7 0.2
4.5 0.7 0.2
5 0.7 0.2
0 0.75 0.2
0.5 0.75 0.2
1 0.75 0.2
1.5 0.75 0.2
2 0.75 0.2
2.5 0.75 0.2
3 0.75 0.2
3.5 0.75 0.2
4 0.75 0.2
4.5 0.75 0.2
5 0.75 0.2
0 0.8 0.2
0.5 0.8 0.2
1 0.8 0.2
1.5 0.8 0.2
2 0.8 0.2
2.5 0.8 0.2
3 0.8 0.2
3.5 0.8 0.2
4 0.8 0.2
4.5 0.8 0.2
5 0.8 0.2
0 0.85 0.2
0.5 0.85 0.2
1 0.85 0.2
1.5 0.85 0.2
2 0.85 0.2
2.5 0.85 0.2
3 0.85 0.2
3.5 0.85 0.2
4 0.85 0.2
4.5 0.85 0.2
5 0.85 0.2
0 0.9 0.2
0.5 0.9 0.2
1 0.9 0.2
1.5 0.9 0.2
2 0.9 0.2
2.5 0.9 0.2
3 0.9 0.2
3.5 0.9 0.2
4 0.9 0.2
4.5 0.9 0.2
5 0.9 0.2
0 0.95 0.2
0.5 0.95 0.2
1 0.95 0.2
1.5 0.95 0.2
2 0.95 0.2
2.5 0.95 0.2
3 0.95 0.2
3.5 0.95 0.2
4 0.95 0.2
4.5 0.95 0.2
5 0.95 0.2
0 1 0.2
0.5 1 0.2
1 1 0.2
1.5 1 0.2
2 1 0.2
2.5 1 0.2
3 1 0.2
3.5 1 0.2
4 1 0.2
4.5 1 0.2
5 1 0.2
0 0 0.3
0.5 0 0.3
1 0 0.3
1.5 0 0.3
2 0 0.3
2.5 0 0.3
3 0 0.3
3.5 0 0.3
4 0 0.3
4.5 0 0.3
5 0 0.3
0 0.05 0.3
0.5 0.05 0.3
1 0.05 0.3
1.5 0.05 0.3
2 0.05 0.3
2.5 0.05 0.3
3 0.05 0.3
3.5 0.05 0.3
4 0.05 0.3
4.5 0.05 0.3
5 0.05 0.3
0 0.1 0.3
0.5 0.1 0.3
1 0.1 0.3
1.5 0.1 0.3
2 0.1 0.3
2.5 0.1 0.3
3 0.1 0.3
3.5 0.1 0.3
4 0.1 0.3
4.5 0.1 0.3
5 0.1 0.3
0 0.15 0.3
0.5 0.15 0.3
1 0.15 0.3
1.5 0.15 0.3
2 0.15 0.3
2.5 0.15 0.3
3 0.15 0.3
3.5 0.15 0.3
4 0.15 0.3
4.5 0.15 0.3
5 0.15 0.3
0 0.2 0.3
0.5 0.2 0.3
1 0.2 0.3
1.5 0.2 0.3
2 0.2 0.3
2.5 0.2 0.3
3 0.2 0.3
3.5 0.2 0.3
4 0.2 0.3
4.5 0.2 0.3
5 0.2 0.3
0 0.25 0.3
0.5 0.25 0.3
1 0.25 0.3
1.5 0.25 0.3
2 0.25 0.3
2.5 0.25 0.3
3 0.25 0.3
3.5 0.25 0.3
4 0.25 0.3
4.5 0.25 0.3
5 0.25 0.3
0 0.3 0.3
0.5 0.3 0.3
1 0.3 0.3
1.5 0.3 0.3
2 0.3 0.3
2.5 0.3 0.3
3 0.3 0.3
3.5 0.3 0.3
4 0.3 0.3
4.5 0.3 0.3
5 0.3 0.3
0 0.35 0.3
0.5 0.35 0.3
1 0.35 0.3
1.5 0.35 0.3
2 0.35 0.3
2.5 0.35 0.3
3 0.35 0.3
3.5 0.35 0.3
4 0.35 0.3
4.5 0.35 0.3
5 0.35 0.3
0 0.4 0.3
0.5 0.4 0.3
1 0.4 0.3
1.5 0.4 0.3
2 0.4 0.3
2.5 0.4 0.3
3 0.4 0.3
3.5 0.4 0.3
4 0.4 0.3
4.5 0.4 0.3
5 0.4 0.3
0 0.45 0.3
0.5 0.45 0.3
1 0.45 0.3
1.5 0.45 0.3
2 0.45 0.3
2.5 0.45 0.3
3 0.45 0.3
3.5 0.45 0.3
4 0.45 0.3
4.5 0.45 0.3
5 0.45 0.3
0 0.5 0.3
0.5 0.5 0.3
1 0.5 0.3
1.5 0.5 0.3
2 0.5 0.3
2.5 0.5 0.3
3 0.5 0.3
3.5 0.5 0.3
4 0.5 0.3
4.5 0.5 0.3
5 0.5 0.3
0 0.55 0.3
0.5 0.55 0.3
1 0.55 0.3
1.5 0.55 0.3
2 0.55 0.3
2.5 0.55 0.3
3 0.55 0.3
3.5 0.55 0.3
4 0.55 0.3
4.5 0.55 0.3
5 0.55 0.3
0 0.6 0.3
0.5 0.6 0.3
1 0.6 0.3
1.5 0.6 0.3
2 0.6 0.3
2.5 0.6 0.3
3 0.6 0.3
3.5 0.6 0.3
4 0.6 0.3
4.5 0.6 0.3
5 0.6 0.3
0 0.65 0.3
0.5 0.65 0.3
1 0.65 0.3
1.5 0.65 0.3
2 0.65 0.3
2.5 0.65 0.3
3 0.65 0.3
3.5 0.65 0.3
4 0.65 0.3
4.5 0.65 0.3
5 0.65 0.3
0 0.7 0.3
0.5 0.7 0.3
1 0.7 0.3
1.5 0.7 0.3
2 0.7 0.3
2.5 0.7 0.3
3 0.7 0.3
3.5 0.7 0.3
4 0.7 0.3
4.5 0.7 0.3
5 0.7 0.3
0 0.75 0.3
0.5 0.75 0.3
1 0.75 0.3
1.5 0.75 0.3
2 0.75 0.3
2.5 0.75 0.3
3 0.75 0.3
3.5 0.75 0.3
4 0.75 0.3
4.5 0.75 0.3
5 0.75 0.3
0 0.8 0.3
0.5 0.8 0.3
1 0.8 0.3
1.5 0.8 0.3
2 0.8 0.3
2.5 0.8 0.3
3 0.8 0.3
3.5 0.8 0.3
4 0.8 0.3
4.5 0.8 0.3
5 0.8 0.3
0 0.85 0.3
0.5 0.85 0.3
1 0.85 0.3
1.5 0.85 0.3
2 0.85 0.3
2.5 0.85 0.3
3 0.85 0.3
3.5 0.85 0.3
4 0.85 0.3
4.5 0.85 0.3
5 0.85 0.3
0 0.9 0.3
0.5 0.9 0.3
1 0.9 0.3
1.5 0.9 0.3
2 0.9 0.3
2.5 0.9 0.3
3 0.9 0.3
3.5 0.9 0.3
4 0.9 0.3
4.5 0.9 0.3
5 0.9 0.3
0 0.95 0.3
0.5 0.95 0.3
1 0.95 0.3
1.5 0.95 0.3
2 0.95 0.3
2.5 0.95 0.3
3 0.95 0.3
3.5 0.95 0.3
4 0.95 0.3
4.5 0.95 0.3
5 0.95 0.3
0 1 0.3
0.5 1 0.3
1 1 0.3
1.5 1 0.3
2 1 0.3
2.5 1 0.3
3 1 0.3
3.5 1 0.3
4 1 0.3
4.5 1 0.3
5 1 0.3
0 0 0.4
[...]
CELL_DATA 2000
SCALARS pressure float 1
LOOKUP_TABLE default
0
0
0.882148
0.95643
0.782497
0.628366
0.47955
0.332132
0.184359
0.0238244
0
0
0.879314
0.94932
0.781872
0.628235
0.47952
0.332127
0.18436
0.0259623
0
0
0.845871
0.945138
0.780921
0.628035
0.479472
0.33212
0.184427
0.0280924
0
0
0.832326
0.935714
0.77973
0.627778
0.479411
0.332112
0.184533
0.0299029
1.36151
1.49415
0.836224
0.926744
0.778322
0.627476
0.479338
0.332103
0.184652
0.0313708
1.35907
1.49208
0.85563
0.918876
0.776811
0.627141
0.479255
0.332092
0.184768
0.0325353
1.3528
1.48723
0.880082
0.912787
0.775295
0.626782
0.479164
0.332077
0.184871
0.0334292
1.34343
1.47988
0.909467
0.90849
0.773846
0.626411
0.479067
0.33206
0.184953
0.0340779
1.33352
1.47106
0.938341
0.905736
0.772515
0.626037
0.478966
0.332039
0.185007
0.0344999
1.32486
1.46194
0.964722
0.90413
0.771319
0.625667
0.478864
0.332014
0.185032
0.0347072
1.31806
1.45319
0.988172
0.903352
0.770255
0.625308
0.478761
0.331986
0.185025
0.0347059
1.31349
1.44522
1.00857
0.90314
0.769316
0.624964
0.47866
0.331956
0.184986
0.034496
1.31157
1.43825
1.02595
0.903277
0.768488
0.62464
0.478563
0.331923
0.184917
0.0340715
1.31234
1.43238
1.04044
0.903584
0.767757
0.624339
0.478471
0.33189
0.184823
0.0334204
1.31568
1.42761
1.05219
0.903916
0.767109
0.624063
0.478386
0.331857
0.184708
0.0325243
1.32141
1.42391
1.06137
0.904161
0.766529
0.623815
0.478309
0.331826
0.18458
0.0313578
1.32907
1.42122
1.06813
0.904231
0.766008
0.623596
0.478241
0.331798
0.184452
0.029888
1.33697
1.4194
1.07267
0.904071
0.765537
0.623408
0.478185
0.331775
0.184338
0.0280761
1.34245
1.41854
1.07519
0.903695
0.765133
0.623259
0.478141
0.331758
0.184266
0.0259448
1.34462
1.41851
1.07561
0.903156
0.764827
0.623159
0.478113
0.331749
0.184261
0.0238062
0
0
0.891572
0.954153
0.782492
0.628333
0.479541
0.332143
0.184534
0.0278646
0
0
0.886829
0.947676
0.781578
0.628164
0.479504
0.332134
0.184501
0.0311636
0
0
0.854698
0.943585
0.780601
0.627953
0.479454
0.332127
0.184614
0.0335286
0
0
0.860208
0.936756
0.779358
0.627696
0.479393
0.332121
0.184745
0.035364
1.34738
1.49281
0.811783
0.926906
0.777952
0.627401
0.479322
0.332113
0.184878
0.0368513
1.34438
1.50928
0.822799
0.916781
0.776453
0.627076
0.479241
0.332103
0.185003
0.0380304
1.33902
1.50315
0.85734
0.91017
0.774983
0.626731
0.479153
0.33209
0.185111
0.038935
1.33196
1.49045
0.89277
0.90647
0.773613
0.626374
0.47906
0.332074
0.185195
0.039591
1.32403
1.47754
0.926409
0.904311
0.772364
0.626014
0.478963
0.332054
0.185251
0.0400175
1.31635
1.46522
0.956725
0.903173
0.771239
0.625659
0.478863
0.33203
0.185277
0.0402271
1.31034
1.45398
0.982952
0.902764
0.770236
0.625313
0.478764
0.332003
0.18527
0.0402258
1.30626
1.44423
1.00529
0.902836
0.769349
0.624983
0.478667
0.331973
0.185231
0.0400138
1.30417
1.43622
1.02404
0.903188
0.768566
0.624671
0.478572
0.331941
0.185161
0.0395848
1.30411
1.42995
1.0395
0.903658
0.767873
0.624381
0.478483
0.331908
0.185063
0.0389265
1.30639
1.42523
1.05189
0.904113
0.767256
0.624115
0.478401
0.331875
0.184944
0.0380198
1.31097
1.42168
1.06146
0.90445
0.766703
0.623874
0.478325
0.331843
0.184808
0.0368387
1.31661
1.41889
1.06841
0.904593
0.766203
0.623661
0.478259
0.331815
0.184666
0.0353497
1.32233
1.41678
1.07294
0.904485
0.765749
0.623478
0.478204
0.331791
0.184528
0.0335128
1.32723
1.41581
1.07532
0.904071
0.765327
0.623322
0.478158
0.331774
0.184409
0.0311466
1.33076
1.41704
1.07556
0.903333
0.764939
0.623197
0.478124
0.331765
0.184437
0.0278468
0
0
0.902455
0.954872
0.782625
0.628308
0.479532
0.332164
0.184823
0.0310267
0
0
0.897064
0.94921
0.781675
0.628129
0.479493
0.332156
0.184803
0.0345428
0
0
0.869952
0.9461
0.780716
0.627913
0.479442
0.33215
0.184935
0.0370348
0
0
0.877352
0.940746
0.779535
0.62766
0.479382
0.332145
0.185083
0.0389433
1.33264
1.48467
0.805187
0.931239
0.778173
0.62737
0.479312
0.332139
0.185228
0.0404756
1.32944
1.51975
0.789451
0.919295
0.776654
0.627049
0.479233
0.33213
0.185362
0.0416844
1.3269
1.52654
0.820263
0.909789
0.77508
0.626708
0.479147
0.332118
0.185476
0.0426085
1.32763
1.51346
0.867266
0.904331
0.773596
0.626357
0.479056
0.332103
0.185565
0.043277
1.33024
1.49264
0.90935
0.902011
0.772288
0.626003
0.478961
0.332085
0.185624
0.043711
1.33285
1.47209
0.944839
0.901295
0.771157
0.625655
0.478865
0.332062
0.18565
0.0439241
1.33425
1.45462
0.975015
0.901358
0.770177
0.625318
0.478768
0.332036
0.185643
0.0439229
1.33367
1.44094
1.00038
0.901842
0.769321
0.624996
0.478673
0.332006
0.185603
0.0437074
1.33142
1.43094
1.0214
0.902531
0.768571
0.624693
0.478582
0.331974
0.185531
0.043271
1.32748
1.42431
1.03853
0.903273
0.767911
0.624411
0.478495
0.331941
0.18543
0.0426003
1.3219
1.42055
1.05213
0.903948
0.767325
0.624153
0.478414
0.331908
0.185304
0.0416741
1.31579
1.41875
1.06236
0.904463
0.766799
0.623919
0.478341
0.331875
0.18516
0.0404634
1.31086
1.41757
1.06941
0.904742
0.766325
0.623711
0.478276
0.331846
0.185005
0.0389294
1.30929
1.41626
1.07372
0.904708
0.765888
0.623531
0.478221
0.331821
0.18485
0.0370194
1.31193
1.41559
1.07591
0.904303
0.765463
0.623372
0.478174
0.331802
0.184711
0.0345262
1.31598
1.41719
1.0761
0.903528
0.765054
0.623241
0.478139
0.331792
0.184727
0.0310092
0
0
0.90819
0.956395
0.782805
0.628299
0.479527
0.332186
0.185078
0.0330282
0
0
0.903114
0.951023
0.78186
0.628118
0.479487
0.332179
0.185062
0.03659
0
0
0.876243
0.948501
0.78093
0.627903
0.479436
0.332174
0.185201
0.0391262
0
0
0.880339
0.943823
0.779802
0.627654
0.479377
0.33217
0.185357
0.0410701
1.3251
1.49084
0.80413
0.934604
0.778493
0.62737
0.479308
0.332164
0.18551
0.0426293
1.3228
1.53014
0.776104
0.92226
0.776999
0.627055
0.47923
0.332157
0.185649
0.0438579
1.3237
1.54267
0.791469
0.911194
0.775375
0.626717
0.479146
0.332146
0.185768
0.0447963
1.33235
1.53172
0.836161
0.903828
0.77377
0.626364
0.479056
0.332132
0.185859
0.0454747
1.34767
1.50652
0.887852
0.90044
0.77233
0.626008
0.478962
0.332114
0.18592
0.0459149
1.36456
1.47818
0.93186
0.899508
0.771111
0.625658
0.478867
0.332092
0.185948
0.0461308
1.37728
1.45249
0.967047
0.899708
0.770085
0.62532
0.478772
0.332066
0.185941
0.0461297
1.38261
1.43247
0.995829
0.900435
0.769214
0.625
0.478679
0.332037
0.1859
0.0459113
1.38031
1.41961
1.01954
0.901401
0.768467
0.624699
0.478588
0.332005
0.185826
0.0454689
1.37021
1.41357
1.03849
0.902444
0.767825
0.624421
0.478503
0.331972
0.185722
0.0447883
1.35282
1.41238
1.05288
0.903426
0.767275
0.624168
0.478423
0.331938
0.185592
0.0438479
1.332
1.41348
1.06321
0.904205
0.766795
0.62394
0.478351
0.331905
0.185442
0.0426173
1.31438
1.41499
1.07018
0.904663
0.766356
0.623738
0.478287
0.331875
0.185281
0.0410564
1.30522
1.41571
1.0744
0.904726
0.765938
0.623559
0.478232
0.331849
0.185117
0.0391112
1.30478
1.41595
1.07648
0.904363
0.765522
0.623401
0.478185
0.331829
0.184971
0.0365737
1.3081
1.41793
1.07668
0.903603
0.765114
0.623269
0.478149
0.331818
0.184983
0.0330109
0
0
0.909826
0.957349
0.782926
0.628298
0.479525
0.3322
0.185221
0.0339882
0
0
0.904521
0.952085
0.781987
0.628118
0.479485
0.332193
0.185206
0.0375613
0
0
0.876849
0.9498
0.781073
0.627903
0.479434
0.332188
0.185349
0.0401124
0
0
0.879624
0.945391
0.779969
0.627656
0.479375
0.332184
0.185507
0.0420701
1.32248
1.49675
0.802092
0.936308
0.778687
0.627375
0.479307
0.33218
0.185663
0.0436409
1.32088
1.53726
0.771859
0.923879
0.777212
0.627063
0.47923
0.332173
0.185805
0.0448789
1.3245
1.5509
0.782487
0.912511
0.775591
0.626728
0.479146
0.332163
0.185926
0.0458242
1.33878
1.54021
0.820623
0.904478
0.773954
0.626377
0.479057
0.332149
0.186019
0.0465076
1.36185
1.51342
0.870605
0.900103
0.772435
0.626019
0.478964
0.332131
0.186081
0.046951
1.38737
1.48124
0.9197
0.898457
0.771114
0.625663
0.478869
0.332109
0.186109
0.0471686
1.408
1.45097
0.961411
0.898441
0.770006
0.625319
0.478774
0.332084
0.186102
0.0471674
1.4176
1.42684
0.994397
0.899273
0.769091
0.624995
0.478681
0.332054
0.186061
0.0469475
1.41513
1.41189
1.01974
0.900501
0.768345
0.624695
0.478591
0.332023
0.185986
0.0465018
1.40045
1.40614
1.03895
0.901834
0.767736
0.624421
0.478507
0.331989
0.18588
0.0458163
1.37495
1.40653
1.05328
0.903053
0.767224
0.624173
0.478428
0.331955
0.185748
0.0448689
1.34544
1.40981
1.06361
0.903999
0.766772
0.623949
0.478356
0.331922
0.185596
0.0436291
1.32015
1.41326
1.07058
0.904565
0.766354
0.623748
0.478292
0.331892
0.185431
0.0420566
1.30551
1.41534
1.07477
0.904691
0.76595
0.623572
0.478237
0.331866
0.185265
0.0400974
1.30252
1.41625
1.07682
0.90436
0.76554
0.623414
0.478191
0.331845
0.185117
0.0375451
1.30524
1.4185
1.07702
0.903614
0.765135
0.623282
0.478155
0.331834
0.185127
0.0339711
0
0
0.909826
0.957349
0.782926
0.628298
0.479525
0.3322
0.185221
0.0339882
0
0
0.904521
0.952085
0.781987
0.628118
0.479485
0.332193
0.185206
0.0375613
0
0
0.876849
0.9498
0.781073
0.627903
0.479434
0.332188
0.185349
0.0401124
0
0
0.879624
0.945391
0.779969
0.627656
0.479375
0.332184
0.185507
0.0420701
1.32248
1.49675
0.802092
0.936308
0.778687
0.627375
0.479307
0.33218
0.185663
0.0436409
1.32088
1.53726
0.771859
0.923879
0.777212
0.627063
0.47923
0.332173
0.185805
0.0448789
1.3245
1.5509
0.782487
0.912511
0.775591
0.626728
0.479146
0.332163
0.185926
0.0458242
1.33878
1.54021
0.820623
0.904478
0.773954
0.626377
0.479057
0.332149
0.186019
0.0465076
1.36185
1.51342
0.870605
0.900103
0.772435
0.626019
0.478964
0.332131
0.186081
0.046951
1.38737
1.48124
0.9197
0.898457
0.771114
0.625663
0.478869
0.332109
0.186109
0.0471686
1.408
1.45097
0.961411
0.898441
0.770006
0.625319
0.478774
0.332084
0.186102
0.0471674
1.4176
1.42684
0.994397
0.899273
0.769091
0.624995
0.478681
0.332054
0.186061
0.0469475
1.41513
1.41189
1.01974
0.900501
0.768345
0.624695
0.478591
0.332023
0.185986
0.0465018
1.40045
1.40614
1.03895
0.901834
0.767736
0.624421
0.478507
0.331989
0.18588
0.0458163
1.37495
1.40653
1.05328
0.903053
0.767224
0.624173
0.478428
0.331955
0.185748
0.0448689
1.34544
1.40981
1.06361
0.903999
0.766772
0.623949
0.478356
0.331922
0.185596
0.0436291
1.32015
1.41326
1.07058
0.904565
0.766354
0.623748
0.478292
0.331892
0.185431
0.0420566
1.30551
1.41534
1.07477
0.904691
0.76595
0.623572
0.478237
0.331866
0.185265
0.0400974
1.30252
1.41625
1.07682
0.90436
0.76554
0.623414
0.478191
0.331845
0.185117
0.0375451
1.30524
1.4185
1.07702
0.903614
0.765135
0.623282
0.478155
0.331834
0.185127
0.0339711
0
0
0.90819
0.956395
0.782805
0.628299
0.479527
0.332186
0.185078
0.0330282
0
0
0.903114
0.951023
0.78186
0.628118
0.479487
0.332179
0.185062
0.03659
0
0
0.876243
0.948501
0.78093
0.627903
0.479436
0.332174
0.185201
0.0391262
0
0
0.880339
0.943823
0.779802
0.627654
0.479377
0.33217
0.185357
0.0410701
1.3251
1.49084
0.80413
0.934604
0.778493
0.62737
0.479308
0.332164
0.18551
0.0426293
1.3228
1.53014
0.776104
0.92226
0.776999
0.627055
0.47923
0.332157
0.185649
0.0438579
1.3237
1.54267
0.791469
0.911194
0.775375
0.626717
0.479146
0.332146
0.185768
0.0447963
1.33235
1.53172
0.836161
0.903828
0.77377
0.626364
0.479056
0.332132
0.185859
0.0454747
1.34767
1.50652
0.887852
0.90044
0.77233
0.626008
0.478962
0.332114
0.18592
0.0459149
1.36456
1.47818
0.93186
0.899508
0.771111
0.625658
0.478867
0.332092
0.185948
0.0461308
1.37728
1.45249
0.967047
0.899708
0.770085
0.62532
0.478772
0.332066
0.185941
0.0461297
1.38261
1.43247
0.995829
0.900435
0.769214
0.625
0.478679
0.332037
0.1859
0.0459113
1.38031
1.41961
1.01954
0.901401
0.768467
0.624699
0.478588
0.332005
0.185826
0.0454689
1.37021
1.41357
1.03849
0.902444
0.767825
0.624421
0.478503
0.331972
0.185722
0.0447883
1.35282
1.41238
1.05288
0.903426
0.767275
0.624168
0.478423
0.331938
0.185592
0.0438479
1.332
1.41348
1.06321
0.904205
0.766795
0.62394
0.478351
0.331905
0.185442
0.0426173
1.31438
1.41499
1.07018
0.904663
0.766356
0.623738
0.478287
0.331875
0.185281
0.0410564
1.30522
1.41571
1.0744
0.904726
0.765938
0.623559
0.478232
0.331849
0.185117
0.0391112
1.30478
1.41595
1.07648
0.904363
0.765522
0.623401
0.478185
0.331829
0.184971
0.0365737
1.3081
1.41793
1.07668
0.903603
0.765114
0.623269
0.478149
0.331818
0.184983
0.0330109
0
0
0.902455
0.954872
0.782625
0.628308
0.479532
0.332164
0.184823
0.0310267
0
0
0.897064
0.94921
0.781675
0.628129
0.479493
0.332156
0.184803
0.0345428
0
0
0.869952
0.9461
0.780716
0.627913
0.479442
0.33215
0.184935
0.0370348
0
0
0.877352
0.940746
0.779535
0.62766
0.479382
0.332145
0.185083
0.0389433
1.33264
1.48467
0.805187
0.931239
0.778173
0.62737
0.479312
0.332139
0.185228
0.0404756
1.32944
1.51975
0.789451
0.919295
0.776654
0.627049
0.479233
0.33213
0.185362
0.0416844
1.3269
1.52654
0.820263
0.909789
0.77508
0.626708
0.479147
0.332118
0.185476
0.0426085
1.32763
1.51346
0.867266
0.904331
0.773596
0.626357
0.479056
0.332103
0.185565
0.043277
1.33024
1.49264
0.90935
0.902011
0.772288
0.626003
0.478961
0.332085
0.185624
0.043711
1.33285
1.47209
0.944839
0.901295
0.771157
0.625655
0.478865
0.332062
0.18565
0.0439241
1.33425
1.45462
0.975015
0.901358
0.770177
0.625318
0.478768
0.332036
0.185643
0.0439229
1.33367
1.44094
1.00038
0.901842
0.769321
0.624996
0.478673
0.332006
0.185603
0.0437074
1.33142
1.43094
1.0214
0.902531
0.768571
0.624693
0.478582
0.331974
0.185531
0.043271
1.32748
1.42431
1.03853
0.903273
0.767911
0.624411
0.478495
0.331941
0.18543
0.0426003
1.3219
1.42055
1.05213
0.903948
0.767325
0.624153
0.478414
0.331908
0.185304
0.0416741
1.31579
1.41875
1.06236
0.904463
0.766799
0.623919
0.478341
0.331875
0.18516
0.0404634
1.31086
1.41757
1.06941
0.904742
0.766325
0.623711
0.478276
0.331846
0.185005
0.0389294
1.30929
1.41626
1.07372
0.904708
0.765888
0.623531
0.478221
0.331821
0.18485
0.0370194
1.31193
1.41559
1.07591
0.904303
0.765463
0.623372
0.478174
0.331802
0.184711
0.0345262
1.31598
1.41719
1.0761
0.903528
0.765054
0.623241
0.478139
0.331792
0.184727
0.0310092
0
0
0.891572
0.954153
0.782492
0.628333
0.479541
0.332143
0.184534
0.0278646
0
0
0.886829
0.947676
0.781578
0.628164
0.479504
0.332134
0.184501
0.0311636
0
0
0.854698
0.943585
0.780601
0.627953
0.479454
0.332127
0.184614
0.0335286
0
0
0.860208
0.936756
0.779358
0.627696
0.479393
0.332121
0.184745
0.035364
1.34738
1.49281
0.811783
0.926906
0.777952
0.627401
0.479322
0.332113
0.184878
0.0368513
1.34438
1.50928
0.822799
0.916781
0.776453
0.627076
0.479241
0.332103
0.185003
0.0380304
1.33902
1.50315
0.85734
0.91017
0.774983
0.626731
0.479153
0.33209
0.185111
0.038935
1.33196
1.49045
0.89277
0.90647
0.773613
0.626374
0.47906
0.332074
0.185195
0.039591
1.32403
1.47754
0.926409
0.904311
0.772364
0.626014
0.478963
0.332054
0.185251
0.0400175
1.31635
1.46522
0.956725
0.903173
0.771239
0.625659
0.478863
0.33203
0.185277
0.0402271
1.31034
1.45398
0.982952
0.902764
0.770236
0.625313
0.478764
0.332003
0.18527
0.0402258
1.30626
1.44423
1.00529
0.902836
0.769349
0.624983
0.478667
0.331973
0.185231
0.0400138
1.30417
1.43622
1.02404
0.903188
0.768566
0.624671
0.478572
0.331941
0.185161
0.0395848
1.30411
1.42995
1.0395
0.903658
0.767873
0.624381
0.478483
0.331908
0.185063
0.0389265
1.30639
1.42523
1.05189
0.904113
0.767256
0.624115
0.478401
0.331875
0.184944
0.0380198
1.31097
1.42168
1.06146
0.90445
0.766703
0.623874
0.478325
0.331843
0.184808
0.0368387
1.31661
1.41889
1.06841
0.904593
0.766203
0.623661
0.478259
0.331815
0.184666
0.0353497
1.32233
1.41678
1.07294
0.904485
0.765749
0.623478
0.478204
0.331791
0.184528
0.0335128
1.32723
1.41581
1.07532
0.904071
0.765327
0.623322
0.478158
0.331774
0.184409
0.0311466
1.33076
1.41704
1.07556
0.903333
0.764939
0.623197
0.478124
0.331765
0.184437
0.0278468
0
0
0.882148
0.95643
0.782497
0.628366
0.47955
0.332132
0.184359
0.0238244
0
0
0.879314
0.94932
0.781872
0.628235
0.47952
0.332127
0.18436
0.0259623
0
0
0.845871
0.945138
0.780921
0.628035
0.479472
0.33212
0.184427
0.0280924
0
0
0.832326
0.935714
0.77973
0.627778
0.479411
0.332112
0.184533
0.0299029
1.36151
1.49415
0.836224
0.926744
0.778322
0.627476
0.479338
0.332103
0.184652
0.0313708
1.35907
1.49208
0.85563
0.918876
0.776811
0.627141
0.479255
0.332092
0.184768
0.0325353
1.3528
1.48723
0.880082
0.912787
0.775295
0.626782
0.479164
0.332077
0.184871
0.0334292
1.34343
1.47988
0.909467
0.90849
0.773846
0.626411
0.479067
0.33206
0.184953
0.0340779
1.33352
1.47106
0.938341
0.905736
0.772515
0.626037
0.478966
0.332039
0.185007
0.0344999
1.32486
1.46194
0.964722
0.90413
0.771319
0.625667
0.478864
0.332014
0.185032
0.0347072
1.31806
1.45319
0.988172
0.903352
0.770255
0.625308
0.478761
0.331986
0.185025
0.0347059
1.31349
1.44522
1.00857
0.90314
0.769316
0.624964
0.47866
0.331956
0.184986
0.034496
1.31157
1.43825
1.02595
0.903277
0.768488
0.62464
0.478563
0.331923
0.184917
0.0340715
1.31234
1.43238
1.04044
0.903584
0.767757
0.624339
0.478471
0.33189
0.184823
0.0334204
1.31568
1.42761
1.05219
0.903916
0.767109
0.624063
0.478386
0.331857
0.184708
0.0325243
1.32141
1.42391
1.06137
0.904161
0.766529
0.623815
0.478309
0.331826
0.18458
0.0313578
1.32907
1.42122
1.06813
0.904231
0.766008
0.623596
0.478241
0.331798
0.184452
0.029888
1.33697
1.4194
1.07267
0.904071
0.765537
0.623408
0.478185
0.331775
0.184338
0.0280761
1.34245
1.41854
1.07519
0.903695
0.765133
0.623259
0.478141
0.331758
0.184266
0.0259448
1.34462
1.41851
1.07561
0.903156
0.764827
0.623159
0.478113
0.331749
0.184261
0.0238062

VECTORS velocity float
0 0 0
0 0 0
0.720474 -0.030289 -0.00280247
0.651501 -0.00228399 0.00105082
0.674745 -0.000631254 0.000130734
0.681702 -0.000143968 2.8402e-05
0.683289 -3.20898e-05 6.36835e-06
0.683681 -8.89392e-06 -2.91927e-06
0.684088 -5.3566e-06 -4.98621e-05
0.708613 -0.00167264 -0.00149927
0 0 0
0 0 0
-0.100633 -0.0897091 -0.00227689
0.670841 -0.0115229 0.000841681
0.745292 -0.00226766 0.000188285
0.756169 -0.000485423 4.14385e-05
0.758323 -0.00010729 9.08632e-06
0.758837 -2.94405e-05 -2.4221e-06
0.759639 -5.23152e-05 -5.15509e-05
0.769794 -0.00335136 -0.00188397
0 0 0
0 0 0
0.744298 -0.15249 -0.000897826
0.714251 -0.0220429 0.000698938
0.754499 -0.0041641 0.000164423
0.764346 -0.000878873 4.06945e-05
0.766491 -0.000193877 9.20819e-06
0.767006 -5.25046e-05 -2.61176e-06
0.767729 -0.000124088 -5.86352e-05
0.775492 -0.0031007 -0.00194714
0 0 0
0 0 0
-0.0865252 -0.217772 -4.04287e-05
0.690022 -0.0313126 4.14674e-05
0.755297 -0.00596598 0.000133798
0.765395 -0.00125982 3.77492e-05
0.76742 -0.000278084 8.64856e-06
0.767901 -7.40949e-05 -2.97401e-06
0.768485 -0.000168772 -6.43278e-05
0.776178 -0.00258199 -0.00196932
0.389002 -0.016251 -0.0349502
0.766102 0.00833156 -0.0246915
0.746114 -0.249158 0.0114775
0.718439 -0.040816 0.00116199
0.757457 -0.00764367 0.000166243
0.76576 -0.00160868 3.51764e-05
0.767548 -0.000355213 7.74195e-06
0.767975 -9.27894e-05 -3.39654e-06
0.76844 -0.00018596 -6.72185e-05
0.776345 -0.0020843 -0.00197976
0.471674 -0.0435344 -0.0432134
0.923248 0.0171337 -0.025978
0.889504 -0.241113 0.0161872
0.742589 -0.0468163 0.00200046
0.759749 -0.00901731 0.000183566
0.766122 -0.00191059 3.09509e-05
0.767625 -0.000422635 6.53523e-06
0.767988 -0.000107915 -3.86647e-06
0.768356 -0.000182375 -6.89816e-05
0.776451 -0.00163665 -0.00198652
0.518936 -0.0593484 -0.0491361
0.942799 0.0157965 -0.0224574
0.913606 -0.223166 0.0116168
0.756104 -0.0500528 0.00165889
0.761857 -0.0100681 0.000148928
0.766521 -0.00215737 2.4228e-05
0.76771 -0.000478457 5.08026e-06
0.768 -0.000119113 -4.35156e-06
0.76829 -0.000163227 -7.00873e-05
0.776533 -0.00123145 -0.00199094
0.557756 -0.0637152 -0.0539338
0.940592 0.0119825 -0.0194508
0.914207 -0.201948 0.00659847
0.766111 -0.0511906 0.00108455
0.763995 -0.0107923 0.000104129
0.766959 -0.00234292 1.68899e-05
0.767804 -0.000521189 3.48776e-06
0.768016 -0.000126241 -4.83266e-06
0.768243 -0.0001327 -7.07901e-05
0.776594 -0.000858658 -0.00199378
0.589294 -0.0587322 -0.0578603
0.936115 0.00850073 -0.0176889
0.911837 -0.179885 0.00351331
0.774842 -0.0506603 0.00063691
0.766182 -0.0111882 6.05627e-05
0.767423 -0.00246293 9.46336e-06
0.767905 -0.00054974 1.82245e-06
0.768034 -0.000129326 -5.29658e-06
0.768214 -9.42705e-05 -7.12299e-05
0.776634 -0.000508534 -0.00199547
0.613565 -0.0464139 -0.0610628
0.93192 0.00635639 -0.0167711
0.909285 -0.158365 0.00157775
0.782481 -0.0488272 0.000325519
0.768337 -0.0112638 2.27023e-05