# vtk DataFile Version 2.0
TestTestTest
ASCII

DATASET STRUCTURED_GRID
DIMENSIONS 11 21 11
POINTS 2541 float
0 0 0
0.5 0 0
1 0 0
1.5 0 0
2 0 0
2.5 0 0
3 0 0
3.5 0 0
4 0 0
4.5 0 0
5 0 0
0 0.05 0
0.5 0.05 0
1 0.05 0
1.5 0.05 0
2 0.05 0
2.5 0.05 0
3 0.05 0
3.5 0.05 0
4 0.05 0
4.5 0.05 0
5 0.05 0
0 0.1 0
0.5 0.1 0
1 0.1 0
1.5 0.1 0
2 0.1 0
2.5 0.1 0
3 0.1 0
3.5 0.1 0
4 0.1 0
4.5 0.1 0
5 0.1 0
0 0.15 0
0.5 0.15 0
1 0.15 0
1.5 0.15 0
2 0.15 0
2.5 0.15 0
3 0.15 0
3.5 0.15 0
4 0.15 0
4.5 0.15 0
5 0.15 0
0 0.2 0
0.5 0.2 0
1 0.2 0
1.5 0.2 0
2 0.2 0
2.5 0.2 0
3 0.2 0
3.5 0.2 0
4 0.2 0
4.5 0.2 0
5 0.2 0
0 0.25 0
0.5 0.25 0
1 0.25 0
1.5 0.25 0
2 0.25 0
2.5 0.25 0
3 0.25 0
3.5 0.25 0
4 0.25 0
4.5 0.25 0
5 0.25 0
0 0.3 0
0.5 0.3 0
1 0.3 0
1.5 0.3 0
2 0.3 0
2.5 0.3 0
3 0.3 0
3.5 0.3 0
4 0.3 0
4.5 0.3 0
5 0.3 0
0 0.35 0
0.5 0.35 0
1 0.35 0
1.5 0.35 0
2 0.35 0
2.5 0.35 0
3 0.35 0
3.5 0.35 0
4 0.35 0
4.5 0.35 0
5 0.35 0
0 0.4 0
0.5 0.4 0
1 0.4 0
1.5 0.4 0
2 0.4 0
2.5 0.4 0
3 0.4 0
3.5 0.4 0
4 0.4 0
4.5 0.4 0
5 0.4 0
0 0.45 0
0.5 0.45 0
1 0.45 0
1.5 0.45 0
2 0.45 0
2.5 0.45 0
3 0.45 0
3.5 0.45 0
4 0.45 0
4.5 0.45 0
5 0.45 0
0 0.5 0
0.5 0.5 0
1 0.5 0
1.5 0.5 0
2 0.5 0
2.5 0.5 0
3 0.5 0
3.5 0.5 0
4 0.5 0
4.5 0.5 0
5 0.5 0
0 0.55 0
0.5 0.55 0
1 0.55 0
1.5 0.55 0
2 0.55 0
2.5 0.55 0
3 0.55 0
3.5 0.55 0
4 0.55 0
4.5 0.55 0
5 0.55 0
0 0.6 0
0.5 0.6 0
1 0.6 0
1.5 0.6 0
2 0.6 0
2.5 0.6 0
3 0.6 0
3.5 0.6 0
4 0.6 0
4.5 0.6 0
5 0.6 0
0 0.65 0
0.5 0.65 0
1 0.65 0
1.5 0.65 0
2 0.65 0
2.5 0.65 0
3 0.65 0
3.5 0.65 0
4 0.65 0
4.5 0.65 0
5 0.65 0
0 0.7 0
0.5 0.7 0
1 0.7 0
1.5 0.7 0
2 0.7 0
2.5 0.7 0
3 0.7 0
3.5 0.7 0
4 0.7 0
4.5 0.7 0
5 0.7 0
0 0.75 0
0.5 0.75 0
1 0.75 0
1.5 0.75 0
2 0.75 0
2.5 0.75 0
3 0.75 0
3.5 0.75 0
4 0.75 0
4.5 0.75 0
5 0.75 0
0 0.8 0
0.5 0.8 0
1 0.8 0
1.5 0.8 0
2 0.8 0
2.5 0.8 0
3 0.8 0
3.5 0.8 0
4 0.8 0
4.5 0.8 0
5 0.8 0
0 0.85 0
0.5 0.85 0
1 0.85 0
1.5 0.85 0
2 0.85 0
2.5 0.85 0
3 0.85 0
3.5 0.85 0
4 0.85 0
4.5 0.85 0
5 0.85 0
0 0.9 0
0.5 0.9 0
1 0.9 0
1.5 0.9 0
2 0.9 0
2.5 0.9 0
3 0.9 0
3.5 0.9 0
4 0.9 0
4.5 0.9 0
5 0.9 0
0 0.95 0
0.5 0.95 0
1 0.95 0
1.5 0.95 0
2 0.95 0
2.5 0.95 0
3 0.95 0
3.5 0.95 0
4 0.95 0
4.5 0.95 0
5 0.95 0
0 1 0
0.5 1 0
1 1 0
1.5 1 0
2 1 0
2.5 1 0
3 1 0
3.5 1 0
4 1 0
4.5 1 0
5 1 0
0 0 0.1
0.5 0 0.1
1 0 0.1
1.5 0 0.1
2 0 0.1
2.5 0 0.1
3 0 0.1
3.5 0 0.1
4 0 0.1
4.5 0 0.1
5 0 0.1
0 0.05 0.1
0.5 0.05 0.1
1 0.05 0.1
1.5 0.05 0.1
2 0.05 0.1
2.5 0.05 0.1
3 0.05 0.1
3.5 0.05 0.1
4 0.05 0.1
4.5 0.05 0.1
5 0.05 0.1
0 0.1 0.1
0.5 0.1 0.1
1 0.1 0.1
1.5 0.1 0.1
2 0.1 0.1
2.5 0.1 0.1
3 0.1 0.1
3.5 0.1 0.1
4 0.1 0.1
4.5 0.1 0.1
5 0.1 0.1
0 0.15 0.1
0.5 0.15 0.1
1 0.15 0.1
1.5 0.15 0.1
2 0.15 0.1
2.5 0.15 0.1
3 0.15 0.1
3.5 0.15 0.1
4 0.15 0.1
4.5 0.15 0.1
5 0.15 0.1
0 0.2 0.1
0.5 0.2 0.1
1 0.2 0.1
1.5 0.2 0.1
2 0.2 0.1
2.5 0.2 0.1
3 0.2 0.1
3.5 0.2 0.1
4 0.2 0.1
4.5 0.2 0.1
5 0.2 0.1
0 0.25 0.1
0.5 0.25 0.1
1 0.25 0.1
1.5 0.25 0.1
2 0.25 0.1
2.5 0.25 0.1
3 0.25 0.1
3.5 0.25 0.1
4 0.25 0.1
4.5 0.25 0.1
5 0.25 0.1
0 0.3 0.1
0.5 0.3 0.1
1 0.3 0.1
1.5 0.3 0.1
2 0.3 0.1
2.5 0.3 0.1
3 0.3 0.1
3.5 0.3 0.1
4 0.3 0.1
4.5 0.3 0.1
5 0.3 0.1
0 0.35 0.1
0.5 0.35 0.1
1 0.35 0.1
1.5 0.35 0.1
2 0.35 0.1
2.5 0.35 0.1
3 0.35 0.1
3.5 0.35 0.1
4 0.35 0.1
4.5 0.35 0.1
5 0.35 0.1
0 0.4 0.1
0.5 0.4 0.1
1 0.4 0.1
1.5 0.4 0.1
2 0.4 0.1
2.5 0.4 0.1
3 0.4 0.1
3.5 0.4 0.1
4 0.4 0.1
4.5 0.4 0.1
5 0.4 0.1
0 0.45 0.1
0.5 0.45 0.1
1 0.45 0.1
1.5 0.45 0.1
2 0.45 0.1
2.5 0.45 0.1
3 0.45 0.1
3.5 0.45 0.1
4 0.45 0.1
4.5 0.45 0.1
5 0.45 0.1
0 0.5 0.1
0.5 0.5 0.1
1 0.5 0.1
1.5 0.5 0.1
2 0.5 0.1
2.5 0.5 0.1
3 0.5 0.1
3.5 0.5 0.1
4 0.5 0.1
4.5 0.5 0.1
5 0.5 0.1
0 0.55 0.1
0.5 0.55 0.1
1 0.55 0.1
1.5 0.55 0.1
2 0.55 0.1
2.5 0.55 0.1
3 0.55 0.1
3.5 0.55 0.1
4 0.55 0.1
4.5 0.55 0.1
5 0.55 0.1
0 0.6 0.1
0.5 0.6 0.1
1 0.6 0.1
1.5 0.6 0.1
2 0.6 0.1
2.5 0.6 0.1
3 0.6 0.1
3.5 0.6 0.1
4 0.6 0.1
4.5 0.6 0.1
5 0.6 0.1
0 0.65 0.1
0.5 0.65 0.1
1 0.65 0.1
1.5 0.65 0.1
2 0.65 0.1
2.5 0.65 0.1
3 0.65 0.1
3.5 0.65 0.1
4 0.65 0.1
4.5 0.65 0.1
5 0.65 0.1
0 0.7 0.1
0.5 0.7 0.1
1 0.7 0.1
1.5 0.7 0.1
2 0.7 0.1
2.5 0.7 0.1
3 0.7 0.1
3.5 0.7 0.1
4 0.7 0.1
4.5 0.7 0.1
5 0.7 0.1
0 0.75 0.1
0.5 0.75 0.1
1 0.75 0.1
1.5 0.75 0.1
2 0.75 0.1
2.5 0.75 0.1
3 0.75 0.1
3.5 0.75 0.1
4 0.75 0.1
4.5 0.75 0.1
5 0.75 0.1
0 0.8 0.1
0.5 0.8 0.1
1 0.8 0.1
1.5 0.8 0.1
2 0.8 0.1
2.5 0.8 0.1
3 0.8 0.1
3.5 0.8 0.1
4 0.8 0.1
4.5 0.8 0.1
5 0.8 0.1
0 0.85 0.1
0.5 0.85 0.1
1 0.85 0.1
1.5 0.85 0.1
2 0.85 0.1
2.5 0.85 0.1
3 0.85 0.1
3.5 0.85 0.1
4 0.85 0.1
4.5 0.85 0.1
5 0.85 0.1
0 0.9 0.1
0.5 0.9 0.1
1 0.9 0.1
1.5 0.9 0.1
2 0.9 0.1
2.5 0.9 0.1
3 0.9 0.1
3.5 0.9 0.1
4 0.9 0.1
4.5 0.9 0.1
5 0.9 0.1
0 0.95 0.1
0.5 0.95 0.1
1 0.95 0.1
1.5 0.95 0.1
2 0.95 0.1
2.5 0.95 0.1
3 0.95 0.1
3.5 0.95 0.1
4 0.95 0.1
4.5 0.95 0.1
5 0.95 0.1
0 1 0.1
0.5 1 0.1
1 1 0.1
1.5 1 0.1
2 1 0.1
2.5 1 0.1
3 1 0.1
3.5 1 0.1
4 1 0.1
4.5 1 0.1
5 1 0.1
0 0 0.2
0.5 0 0.2
1 0 0.2
1.5 0 0.2
2 0 0.2
2.5 0 0.2
3 0 0.2
3.5 0 0.2
4 0 0.2
4.5 0 0.2
5 0 0.2
0 0.05 0.2
0.5 0.05 0.2
1 0.05 0.2
1.5 0.05 0.2
2 0.05 0.2
2.5 0.05 0.2
3 0.05 0.2
3.5 0.05 0.2
4 0.05 0.2
4.5 0.05 0.2
5 0.05 0.2
0 0.1 0.2
0.5 0.1 0.2
1 0.1 0.2
1.5 0.1 0.2
2 0.1 0.2
2.5 0.1 0.2
3 0.1 0.2
3.5 0.1 0.2
4 0.1 0.2
4.5 0.1 0.2
5 0.1 0.2
0 0.15 0.2
0.5 0.15 0.2
1 0.15 0.2
1.5 0.15 0.2
2 0.15 0.2
2.5 0.15 0.2
3 0.15 0.2
3.5 0.15 0.2
4 0.15 0.2
4.5 0.15 0.2
5 0.15 0.2
0 0.2 0.2
0.5 0.2 0.2
1 0.2 0.2
1.5 0.2 0.2
2 0.2 0.2
2.5 0.2 0.2
3 0.2 0.2
3.5 0.2 0.2
4 0.2 0.2
4.5 0.2 0.2
5 0.2 0.2
0 0.25 0.2
0.5 0.25 0.2
1 0.25 0.2
1.5 0.25 0.2
2 0.25 0.2
2.5 0.25 0.2
3 0.25 0.2
3.5 0.25 0.2
4 0.25 0.2
4.5 0.25 0.2
5 0.25 0.2
0 0.3 0.2
0.5 0.3 0.2
1 0.3 0.2
1.5 0.3 0.2
2 0.3 0.2
2.5 0.3 0.2
3 0.3 0.2
3.5 0.3 0.2
4 0.3 0.2
4.5 0.3 0.2
5 0.3 0.2
0 0.35 0.2
0.5 0.35 0.2
1 0.35 0.2
1.5 0.35 0.2
2 0.35 0.2
2.5 0.35 0.2
3 0.35 0.2
3.5 0.35 0.2
4 0.35 0.2
4.5 0.35 0.2
5 0.35 0.2
0 0.4 0.2
0.5 0.4 0.2
1 0.4 0.2
1.5 0.4 0.2
2 0.4 0.2
2.5 0.4 0.2
3 0.4 0.2
3.5 0.4 0.2
4 0.4 0.2
4.5 0.4 0.2
5 0.4 0.2
0 0.45 0.2
0.5 0.45 0.2
1 0.45 0.2
1.5 0.45 0.2
2 0.45 0.2
2.5 0.45 0.2
3 0.45 0.2
3.5 0.45 0.2
4 0.45 0.2
4.5 0.45 0.2
5 0.45 0.2
0 0.5 0.2
0.5 0.5 0.2
1 0.5 0.2
1.5 0.5 0.2
2 0.5 0.2
2.5 0.5 0.2
3 0.5 0.2
3.5 0.5 0.2
4 0.5 0.2
4.5 0.5 0.2
5 0.5 0.2
0 0.55 0.2
0.5 0.55 0.2
1 0.55 0.2
1.5 0.55 0.2
2 0.55 0.2
2.5 0.55 0.2
3 0.55 0.2
3.5 0.55 0.2
4 0.55 0.2
4.5 0.55 0.2
5 0.55 0.2
0 0.6 0.2
0.5 0.6 0.2
1 0.6 0.2
1.5 0.6 0.2
2 0.6 0.2
2.5 0.6 0.2
3 0.6 0.2
3.5 0.6 0.2
4 0.6 0.2
4.5 0.6 0.2
5 0.6 0.2
0 0.65 0.2
0.5 0.65 0.2
1 0.65 0.2
1.5 0.65 0.2
2 0.65 0.2
2.5 0.65 0.2
3 0.65 0.2
3.5 0.65 0.2
4 0.65 0.2
4.5 0.65 0.2
5 0.65 0.2
0 0.7 0.2
0.5 0.7 0.2
1 0.7 0.2
1.5 0.7 0.2
2 0.7 0.2
2.5 0.7 0.2
3 0.7 0.2
3.5 0.7 0.2
4 0.7 0.2
4.5 0.7 0.2
5 0.7 0.2
0 0.75 0.2
0.5 0.75 0.2
1 0.75 0.2
1.5 0.75 0.2
2 0.75 0.2
2.5 0.75 0.2
3 0.75 0.2
3.5 0.75 0.2
4 0.75 0.2
4.5 0.75 0.2
5 0.75 0.2
0 0.8 0.2
0.5 0.8 0.2
1 0.8 0.2
1.5 0.8 0.2
2 0.8 0.2
2.5 0.8 0.2
3 0.8 0.2
3.5 0.8 0.2
4 0.8 0.2
4.5 0.8 0.2
5 0.8 0.2
0 0.85 0.2
0.5 0.85 0.2
1 0.85 0.2
1.5 0.85 0.2
2 0.85 0.2
2.5 0.85 0.2
3 0.85 0.2
3.5 0.85 0.2
4 0.85 0.2
4.5 0.85 0.2
5 0.85 0.2
0 0.9 0.2
0.5 0.9 0.2
1 0.9 0.2
1.5 0.9 0.2
2 0.9 0.2
2.5 0.9 0.2
3 0.9 0.2
3.5 0.9 0.2
4 0.9 0.2
4.5 0.9 0.2
5 0.9 0.2
0 0.95 0.2
0.5 0.95 0.2
1 0.95 0.2
1.5 0.95 0.2
2 0.95 0.2
2.5 0.95 0.2
3 0.95 0.2
3.5 0.95 0.2
4 0.95 0.2
4.5 0.95 0.2
5 0.95 0.2
0 1 0.2
0.5 1 0.2
1 1 0.2
1.5 1 0.2
2 1 0.2
2.5 1 0.2
3 1 0.2
3.5 1 0.2
4 1 0.2
4.5 1 0.2
5 1 0.2
0 0 0.3
0.5 0 0.3
1 0 0.3
1.5 0 0.3
2 0 0.3
2.5 0 0.3
3 0 0.3
3.5 0 0.3
4 0 0.3
4.5 0 0.3
5 0 0.3
0 0.05 0.3
0.5 0.05 0.3
1 0.05 0.3
1.5 0.05 0.3
2 0.05 0.3
2.5 0.05 0.3
3 0.05 0.3
3.5 0.05 0.3
4 0.05 0.3
4.5 0.05 0.3
5 0.05 0.3
0 0.1 0.3
0.5 0.1 0.3
1 0.1 0.3
1.5 0.1 0.3
2 0.1 0.3
2.5 0.1 0.3
3 0.1 0.3
3.5 0.1 0.3
4 0.1 0.3
4.5 0.1 0.3
5 0.1 0.3
0 0.15 0.3
0.5 0.15 0.3
1 0.15 0.3
1.5 0.15 0.3
2 0.15 0.3
2.5 0.15 0.3
3 0.15 0.3
3.5 0.15 0.3
4 0.15 0.3
4.5 0.15 0.3
5 0.15 0.3
0 0.2 0.3
0.5 0.2 0.3
1 0.2 0.3
1.5 0.2 0.3
2 0.2 0.3
2.5 0.2 0.3
3 0.2 0.3
3.5 0.2 0.3
4 0.2 0.3
4.5 0.2 0.3
5 0.2 0.3
0 0.25 0.3
0.5 0.25 0.3
1 0.25 0.3
1.5 0.25 0.3
2 0.25 0.3
2.5 0.25 0.3
3 0.25 0.3
3.5 0.25 0.3
4 0.25 0.3
4.5 0.25 0.3
5 0.25 0.3
0 0.3 0.3
0.5 0.3 0.3
1 0.3 0.3
1.5 0.3 0.3
2 0.3 0.3
2.5 0.3 0.3
3 0.3 0.3
3.5 0.3 0.3
4 0.3 0.3
4.5 0.3 0.3
5 0.3 0.3
0 0.35 0.3
0.5 0.35 0.3
1 0.35 0.3
1.5 0.35 0.3
2 0.35 0.3
2.5 0.35 0.3
3 0.35 0.3
3.5 0.35 0.3
4 0.35 0.3
4.5 0.35 0.3
5 0.35 0.3
0 0.4 0.3
0.5 0.4 0.3
1 0.4 0.3
1.5 0.4 0.3
2 0.4 0.3
2.5 0.4 0.3
3 0.4 0.3
3.5 0.4 0.3
4 0.4 0.3
4.5 0.4 0.3
5 0.4 0.3
0 0.45 0.3
0.5 0.45 0.3
1 0.45 0.3
1.5 0.45 0.3
2 0.45 0.3
2.5 0.45 0.3
3 0.45 0.3
3.5 0.45 0.3
4 0.45 0.3
4.5 0.45 0.3
5 0.45 0.3
0 0.5 0.3
0.5 0.5 0.3
1 0.5 0.3
1.5 0.5 0.3
2 0.5 0.3
2.5 0.5 0.3
3 0.5 0.3
3.5 0.5 0.3
4 0.5 0.3
4.5 0.5 0.3
5 0.5 0.3
0 0.55 0.3
0.5 0.55 0.3
1 0.55 0.3
1.5 0.55 0.3
2 0.55 0.3
2.5 0.55 0.3
3 0.55 0.3
3.5 0.55 0.3
4 0.55 0.3
4.5 0.55 0.3
5 0.55 0.3
0 0.6 0.3
0.5 0.6 0.3
1 0.6 0.3
1.5 0.6 0.3
2 0.6 0.3
2.5 0.6 0.3
3 0.6 0.3
3.5 0.6 0.3
4 0.6 0.3
4.5 0.6 0.3
5 0.6 0.3
0 0.65 0.3
0.5 0.65 0.3
1 0.65 0.3
1.5 0.65 0.3
2 0.65 0.3
2.5 0.65 0.3
3 0.65 0.3
3.5 0.65 0.3
4 0.65 0.3
4.5 0.65 0.3
5 0.65 0.3
0 0.7 0.3
0.5 0.7 0.3
1 0.7 0.3
1.5 0.7 0.3
2 0.7 0.3
2.5 0.7 0.3
3 0.7 0.3
3.5 0.7 0.3
4 0.7 0.3
4.5 0.7 0.3
5 0.7 0.3
0 0.75 0.3
0.5 0.75 0.3
1 0.75 0.3
1.5 0.75 0.3
2 0.75 0.3
2.5 0.75 0.3
3 0.75 0.3
3.5 0.75 0.3
4 0.75 0.3
4.5 0.75 0.3
5 0.75 0.3
0 0.8 0.3
0.5 0.8 0.3
1 0.8 0.3
1.5 0.8 0.3
2 0.8 0.3
2.5 0.8 0.3
3 0.8 0.3
3.5 0.8 0.3
4 0.8 0.3
4.5 0.8 0.3
5 0.8 0.3
0 0.85 0.3
0.5 0.85 0.3
1 0.85 0.3
1.5 0.85 0.3
2 0.85 0.3
2.5 0.85 0.3
3 0.85 0.3
3.5 0.85 0.3
4 0.85 0.3
4.5 0.85 0.3
5 0.85 0.3
0 0.9 0.3
0.5 0.9 0.3
1 0.9 0.3
1.5 0.9 0.3
2 0.9 0.3
2.5 0.9 0.3
3 0.9 0.3
3.5 0.9 0.3
4 0.9 0.3
4.5 0.9 0.3
5 0.9 0.3
0 0.95 0.3
0.5 0.95 0.3
1 0.95 0.3
1.5 0.95 0.3
2 0.95 0.3
2.5 0.95 0.3
3 0.95 0.3
3.5 0.95 0.3
4 0.95 0.3
4.5 0.95 0.3
5 0.95 0.3
0 1 0.3
0.5 1 0.3
1 1 0.3
1.5 1 0.3
2 1 0.3
2.5 1 0.3
3 1 0.3
3.5 1 0.3
4 1 0.3
4.5 1 0.3
5 1 0.3
0 0 0.4
[...]
CELL_DATA 2000
SCALARS pressure float 1
LOOKUP_TABLE default
0
0
0.648094
1.00552
0.862634
0.704138
0.539714
0.373821
0.206671
0.0245081
0
0
0.657224
0.998047
0.862291
0.7041
0.539707
0.373823
0.206749
0.0276858
0
0
0.628108
0.995539
0.862143
0.704126
0.539714
0.373833
0.20688
0.0303724
0
0
0.651158
0.987637
0.862224
0.704215
0.539736
0.373849
0.207039
0.0325971
2.89519
3.169
0.696994
0.983618
0.862623
0.704369
0.539771
0.373869
0.207207
0.0344096
2.88537
3.11652
0.797949
0.985109
0.863417
0.704588
0.539819
0.373892
0.207368
0.0358538
2.86816
3.0478
0.9028
0.991229
0.864622
0.704867
0.539879
0.373916
0.20751
0.0369662
2.84518
2.97479
1.00391
1.0005
0.866204
0.7052
0.539947
0.37394
0.207624
0.0377759
2.82011
2.90387
1.09703
1.01185
0.8681
0.705578
0.540023
0.373962
0.207705
0.0383042
2.7957
2.83831
1.18038
1.0244
0.870226
0.705989
0.540104
0.373982
0.207747
0.0385651
2.77341
2.7795
1.25348
1.03739
0.872491
0.706419
0.540187
0.373997
0.20775
0.0385655
2.75448
2.72787
1.31657
1.05022
0.874801
0.706852
0.54027
0.374009
0.207713
0.0383055
2.73994
2.68333
1.37018
1.06243
0.877066
0.707275
0.540349
0.374016
0.207638
0.0377781
2.73031
2.6456
1.41499
1.07363
0.879201
0.707672
0.540422
0.374018
0.207528
0.0369691
2.72531
2.61436
1.4517
1.08353
0.88113
0.708028
0.540486
0.374017
0.20739
0.0358573
2.72453
2.5893
1.48096
1.0919
0.882786
0.708331
0.54054
0.374012
0.207232
0.0344136
2.72739
2.5702
1.50333
1.09858
0.884113
0.70857
0.540581
0.374006
0.207066
0.0326014
2.7321
2.5568
1.51929
1.10344
0.885068
0.708735
0.540607
0.373998
0.206908
0.0303767
2.73603
2.54893
1.5292
1.10641
0.885619
0.708822
0.540619
0.37399
0.206777
0.02769
2.73863
2.54625
1.53316
1.10739
0.885741
0.708824
0.540614
0.373984
0.206698
0.0245119
0
0
0.620262
1.00237
0.862051
0.704025
0.539692
0.373834
0.20693
0.0297464
0
0
0.630236
0.995191
0.861701
0.703986
0.539684
0.373836
0.207013
0.0332169
0
0
0.578663
0.993443
0.861594
0.704016
0.539692
0.373847
0.207148
0.0360173
0
0
0.638371
0.985413
0.861711
0.704114
0.539715
0.373863
0.20731
0.0383047
2.88264
3.40283
0.503666
0.977988
0.862139
0.70428
0.539753
0.373884
0.20748
0.040153
2.87118
3.26638
0.673595
0.977844
0.862978
0.704512
0.539804
0.373908
0.207643
0.0416183
2.8532
3.14359
0.825139
0.985952
0.864257
0.704807
0.539867
0.373933
0.207786
0.0427433
2.83089
3.03788
0.955022
0.996749
0.865925
0.705156
0.539939
0.373957
0.207901
0.0435605
2.80537
2.94724
1.06608
1.00925
0.867907
0.705551
0.540019
0.373981
0.207982
0.0440931
2.77829
2.8696
1.16079
1.02266
0.870114
0.705978
0.540104
0.374001
0.208025
0.0443559
2.75342
2.80308
1.2412
1.03629
0.872452
0.706423
0.540191
0.374017
0.208028
0.0443564
2.73296
2.74622
1.30904
1.04961
0.874827
0.706872
0.540277
0.37403
0.207991
0.0440946
2.71798
2.69778
1.36575
1.06218
0.877148
0.707308
0.540359
0.374037
0.207916
0.043563
2.70906
2.6568
1.41258
1.07364
0.879331
0.707717
0.540436
0.374041
0.207805
0.0427466
2.70581
2.62261
1.45056
1.08373
0.881298
0.708084
0.540503
0.37404
0.207667
0.0416223
2.70685
2.5947
1.48058
1.09224
0.882985
0.708395
0.540559
0.374036
0.207508
0.0401576
2.70917
2.57299
1.50336
1.09901
0.884336
0.708641
0.540601
0.374029
0.20734
0.0383096
2.71205
2.55751
1.51947
1.10392
0.885306
0.708812
0.540629
0.374022
0.207179
0.0360222
2.71558
2.54809
1.52935
1.10691
0.885863
0.7089
0.540641
0.374014
0.207044
0.0332217
2.71895
2.54476
1.53328
1.10788
0.885979
0.7089
0.540636
0.374007
0.20696
0.0297509
0
0
0.584465
0.998383
0.86154
0.703934
0.539675
0.373858
0.207263
0.0333633
0
0
0.589247
0.991914
0.861208
0.703896
0.539667
0.373861
0.207347
0.0368823
0
0
0.533865
0.990938
0.861138
0.703931
0.539676
0.373871
0.207484
0.0397289
0
0
0.596672
0.984268
0.861297
0.704036
0.539701
0.373888
0.207649
0.042053
2.87405
3.63835
0.301719
0.972736
0.861727
0.70421
0.539741
0.373909
0.207821
0.0439282
2.86008
3.44888
0.528468
0.969421
0.86255
0.704451
0.539794
0.373934
0.207985
0.0454123
2.84253
3.26911
0.73059
0.978724
0.863842
0.704755
0.539859
0.373959
0.20813
0.0465503
2.82708
3.12699
0.892304
0.991013
0.865552
0.705115
0.539934
0.373985
0.208246
0.047376
2.81203
3.01265
1.02434
1.00479
0.867591
0.705521
0.540016
0.374009
0.208328
0.0479136
2.79474
2.91934
1.13314
1.01924
0.869861
0.705959
0.540104
0.37403
0.208371
0.0481789
2.7747
2.84249
1.22312
1.03373
0.872262
0.706415
0.540194
0.374047
0.208374
0.0481794
2.75473
2.77839
1.29746
1.04774
0.874696
0.706874
0.540282
0.37406
0.208337
0.0479152
2.73909
2.72426
1.3586
1.06085
0.877072
0.707321
0.540368
0.374068
0.208261
0.0473786
2.72836
2.67835
1.4084
1.07273
0.879303
0.707739
0.540446
0.374072
0.20815
0.0465539
2.71884
2.63974
1.44834
1.08315
0.881313
0.708114
0.540515
0.374072
0.20801
0.0454167
2.70851
2.60797
1.47956
1.09191
0.883037
0.708433
0.540573
0.374068
0.20785
0.0439331
2.69878
2.58255
1.50297
1.09888
0.88442
0.708685
0.540617
0.374062
0.20768
0.0420583
2.69334
2.56369
1.51934
1.10394
0.885416
0.708861
0.540646
0.374054
0.207517
0.0397343
2.69518
2.55187
1.52929
1.10701
0.885989
0.708952
0.540659
0.374047
0.20738
0.0368877
2.70035
2.54725
1.5332
1.10802
0.886111
0.708953
0.540654
0.37404
0.207294
0.0333683
0
0
0.550957
0.995088
0.861146
0.703869
0.539664
0.373882
0.207542
0.0355968
0
0
0.552678
0.988709
0.860825
0.703833
0.539657
0.373885
0.207627
0.0391273
0
0
0.490785
0.987839
0.860775
0.703871
0.539667
0.373895
0.207766
0.0419899
0
0
0.542223
0.981201
0.860962
0.703981
0.539692
0.373912
0.207932
0.04433
2.87226
3.75971
0.230878
0.969332
0.861427
0.704162
0.539733
0.373934
0.208105
0.0462192
2.85702
3.55511
0.454868
0.965801
0.862286
0.70441
0.539788
0.373959
0.20827
0.0477146
2.84044
3.35528
0.671061
0.974988
0.863588
0.704721
0.539854
0.373985
0.208416
0.048861
2.83024
3.19539
0.847702
0.987298
0.865287
0.705086
0.539931
0.374011
0.208533
0.0496926
2.82672
3.06715
0.992172
1.00133
0.867326
0.705496
0.540015
0.374035
0.208615
0.050234
2.82494
2.96329
1.11047
1.01622
0.869612
0.70594
0.540104
0.374057
0.208659
0.0505011
2.81853
2.87785
1.20759
1.03119
0.872039
0.706402
0.540196
0.374074
0.208662
0.0505017
2.80577
2.80689
1.28726
1.04567
0.874505
0.706867
0.540286
0.374088
0.208625
0.0502357
2.78947
2.74778
1.3523
1.05919
0.876915
0.707319
0.540373
0.374096
0.208548
0.0496954
2.77017
2.69834
1.40479
1.07146
0.879183
0.707743
0.540453
0.374101
0.208437
0.0488647
2.74568
2.6566
1.44635
1.08224
0.881238
0.708125
0.540524
0.374101
0.208296
0.0477191
2.71851
2.62135
1.47847
1.09132
0.883007
0.708451
0.540583
0.374097
0.208135
0.0462244
2.69599
2.59263
1.50238
1.09853
0.884427
0.708709
0.540628
0.374091
0.207964
0.0443356
2.68422
2.57097
1.51903
1.10375
0.885449
0.708888
0.540658
0.374084
0.207799
0.0419956
2.68431
2.55704
1.5291
1.10691
0.886038
0.708982
0.540671
0.374076
0.207661
0.039133
2.69039
2.55129
1.53303
1.10796
0.886166
0.708984
0.540666
0.374069
0.207575
0.0356021
0
0
0.531609
0.993151
0.860928
0.703835
0.539659
0.373896
0.207698
0.036659
0
0
0.531999
0.986768
0.860612
0.7038
0.539652
0.373899
0.207783
0.0401927
0
0
0.467342
0.9859
0.860572
0.70384
0.539662
0.37391
0.207922
0.0430605
0
0
0.515527
0.979251
0.860772
0.703953
0.539688
0.373927
0.208088
0.0454065
2.87277
3.81135
0.202121
0.967374
0.861257
0.704137
0.539729
0.373949
0.208262
0.0473013
2.85702
3.60274
0.425648
0.963948
0.862141
0.704389
0.539785
0.373974
0.208428
0.0488016
2.84177
3.39708
0.644265
0.973461
0.863476
0.704704
0.539852
0.374001
0.208574
0.0499519
2.83554
3.23117
0.824911
0.986107
0.865203
0.705073
0.53993
0.374027
0.208692
0.0507863
2.83815
3.09709
0.974437
1.00012
0.867236
0.705486
0.540015
0.374051
0.208774
0.0513296
2.84496
2.98768
1.09787
1.01479
0.869488
0.70593
0.540105
0.374073
0.208818
0.0515976
2.84946
2.89725
1.19922
1.02963
0.871886
0.706391
0.540197
0.374091
0.208821
0.0515982
2.84457
2.82199
1.28201
1.04417
0.874344
0.706857
0.540288
0.374104
0.208784
0.0513314
2.82787
2.76011
1.34909
1.05796
0.876776
0.707313
0.540376
0.374113
0.208708
0.0507892
2.79998
2.70921
1.40277
1.07056
0.879083
0.707742
0.540456
0.374117
0.208596
0.0499557
2.76386
2.6661
1.4451
1.08163
0.881174
0.708128
0.540528
0.374117
0.208454
0.0488062
2.72735
2.62936
1.47773
1.09092
0.882972
0.708458
0.540588
0.374114
0.208292
0.0473066
2.69799
2.59896
1.50197
1.09827
0.884413
0.708718
0.540633
0.374108
0.208121
0.0454123
2.68168
2.57572
1.51881
1.10358
0.885451
0.7089
0.540664
0.374101
0.207956
0.0430664
2.68007
2.56057
1.52896
1.1068
0.886049
0.708995
0.540677
0.374093
0.207817
0.0401986
2.68653
2.55416
1.5329
1.10787
0.886183
0.708998
0.540672
0.374086
0.207731
0.0366645
0
0
0.531609
0.993151
0.860928
0.703835
0.539659
0.373896
0.207698
0.036659
0
0
0.531999
0.986768
0.860612
0.7038
0.539652
0.373899
0.207783
0.0401927
0
0
0.467342
0.9859
0.860572
0.70384
0.539662
0.37391
0.207922
0.0430605
0
0
0.515527
0.979251
0.860772
0.703953
0.539688
0.373927
0.208088
0.0454065
2.87277
3.81135
0.202121
0.967374
0.861257
0.704137
0.539729
0.373949
0.208262
0.0473013
2.85702
3.60274
0.425648
0.963948
0.862141
0.704389
0.539785
0.373974
0.208428
0.0488016
2.84177
3.39708
0.644265
0.973461
0.863476
0.704704
0.539852
0.374001
0.208574
0.0499519
2.83554
3.23117
0.824911
0.986107
0.865203
0.705073
0.53993
0.374027
0.208692
0.0507863
2.83815
3.09709
0.974437
1.00012
0.867236
0.705486
0.540015
0.374051
0.208774
0.0513296
2.84496
2.98768
1.09787
1.01479
0.869488
0.70593
0.540105
0.374073
0.208818
0.0515976
2.84946
2.89725
1.19922
1.02963
0.871886
0.706391
0.540197
0.374091
0.208821
0.0515982
2.84457
2.82199
1.28201
1.04417
0.874344
0.706857
0.540288
0.374104
0.208784
0.0513314
2.82787
2.76011
1.34909
1.05796
0.876776
0.707313
0.540376
0.374113
0.208708
0.0507892
2.79998
2.70921
1.40277
1.07056
0.879083
0.707742
0.540456
0.374117
0.208596
0.0499557
2.76386
2.6661
1.4451
1.08163
0.881174
0.708128
0.540528
0.374117
0.208454
0.0488062
2.72735
2.62936
1.47773
1.09092
0.882972
0.708458
0.540588
0.374114
0.208292
0.0473066
2.69799
2.59896
1.50197
1.09827
0.884413
0.708718
0.540633
0.374108
0.208121
0.0454123
2.68168
2.57572
1.51881
1.10358
0.885451
0.7089
0.540664
0.374101
0.207956
0.0430664
2.68007
2.56057
1.52896
1.1068
0.886049
0.708995
0.540677
0.374093
0.207817
0.0401986
2.68653
2.55416
1.5329
1.10787
0.886183
0.708998
0.540672
0.374086
0.207731
0.0366645
0
0
0.550957
0.995088
0.861146
0.703869
0.539664
0.373882
0.207542
0.0355968
0
0
0.552678
0.988709
0.860825
0.703833
0.539657
0.373885
0.207627
0.0391273
0
0
0.490785
0.987839
0.860775
0.703871
0.539667
0.373895
0.207766
0.0419899
0
0
0.542223
0.981201
0.860962
0.703981
0.539692
0.373912
0.207932
0.04433
2.87226
3.75971
0.230878
0.969332
0.861427
0.704162
0.539733
0.373934
0.208105
0.0462192
2.85702
3.55511
0.454868
0.965801
0.862286
0.70441
0.539788
0.373959
0.20827
0.0477146
2.84044
3.35528
0.671061
0.974988
0.863588
0.704721
0.539854
0.373985
0.208416
0.048861
2.83024
3.19539
0.847702
0.987298
0.865287
0.705086
0.539931
0.374011
0.208533
0.0496926
2.82672
3.06715
0.992172
1.00133
0.867326
0.705496
0.540015
0.374035
0.208615
0.050234
2.82494
2.96329
1.11047
1.01622
0.869612
0.70594
0.540104
0.374057
0.208659
0.0505011
2.81853
2.87785
1.20759
1.03119
0.872039
0.706402
0.540196
0.374074
0.208662
0.0505017
2.80577
2.80689
1.28726
1.04567
0.874505
0.706867
0.540286
0.374088
0.208625
0.0502357
2.78947
2.74778
1.3523
1.05919
0.876915
0.707319
0.540373
0.374096
0.208548
0.0496954
2.77017
2.69834
1.40479
1.07146
0.879183
0.707743
0.540453
0.374101
0.208437
0.0488647
2.74568
2.6566
1.44635
1.08224
0.881238
0.708125
0.540524
0.374101
0.208296
0.0477191
2.71851
2.62135
1.47847
1.09132
0.883007
0.708451
0.540583
0.374097
0.208135
0.0462244
2.69599
2.59263
1.50238
1.09853
0.884427
0.708709
0.540628
0.374091
0.207964
0.0443356
2.68422
2.57097
1.51903
1.10375
0.885449
0.708888
0.540658
0.374084
0.207799
0.0419956
2.68431
2.55704
1.5291
1.10691
0.886038
0.708982
0.540671
0.374076
0.207661
0.039133
2.69039
2.55129
1.53303
1.10796
0.886166
0.708984
0.540666
0.374069
0.207575
0.0356021
0
0
0.584465
0.998383
0.86154
0.703934
0.539675
0.373858
0.207263
0.0333633
0
0
0.589247
0.991914
0.861208
0.703896
0.539667
0.373861
0.207347
0.0368823
0
0
0.533865
0.990938
0.861138
0.703931
0.539676
0.373871
0.207484
0.0397289
0
0
0.596672
0.984268
0.861297
0.704036
0.539701
0.373888
0.207649
0.042053
2.87405
3.63835
0.301719
0.972736
0.861727
0.70421
0.539741
0.373909
0.207821
0.0439282
2.86008
3.44888
0.528468
0.969421
0.86255
0.704451
0.539794
0.373934
0.207985
0.0454123
2.84253
3.26911
0.73059
0.978724
0.863842
0.704755
0.539859
0.373959
0.20813
0.0465503
2.82708
3.12699
0.892304
0.991013
0.865552
0.705115
0.539934
0.373985
0.208246
0.047376
2.81203
3.01265
1.02434
1.00479
0.867591
0.705521
0.540016
0.374009
0.208328
0.0479136
2.79474
2.91934
1.13314
1.01924
0.869861
0.705959
0.540104
0.37403
0.208371
0.0481789
2.7747
2.84249
1.22312
1.03373
0.872262
0.706415
0.540194
0.374047
0.208374
0.0481794
2.75473
2.77839
1.29746
1.04774
0.874696
0.706874
0.540282
0.37406
0.208337
0.0479152
2.73909
2.72426
1.3586
1.06085
0.877072
0.707321
0.540368
0.374068
0.208261
0.0473786
2.72836
2.67835
1.4084
1.07273
0.879303
0.707739
0.540446
0.374072
0.20815
0.0465539
2.71884
2.63974
1.44834
1.08315
0.881313
0.708114
0.540515
0.374072
0.20801
0.0454167
2.70851
2.60797
1.47956
1.09191
0.883037
0.708433
0.540573
0.374068
0.20785
0.0439331
2.69878
2.58255
1.50297
1.09888
0.88442
0.708685
0.540617
0.374062
0.20768
0.0420583
2.69334
2.56369
1.51934
1.10394
0.885416
0.708861
0.540646
0.374054
0.207517
0.0397343
2.69518
2.55187
1.52929
1.10701
0.885989
0.708952
0.540659
0.374047
0.20738
0.0368877
2.70035
2.54725
1.5332
1.10802
0.886111
0.708953
0.540654
0.37404
0.207294
0.0333683
0
0
0.620262
1.00237
0.862051
0.704025
0.539692
0.373834
0.20693
0.0297464
0
0
0.630236
0.995191
0.861701
0.703986
0.539684
0.373836
0.207013
0.0332169
0
0
0.578663
0.993443
0.861594
0.704016
0.539692
0.373847
0.207148
0.0360173
0
0
0.638371
0.985413
0.861711
0.704114
0.539715
0.373863
0.20731
0.0383047
2.88264
3.40283
0.503666
0.977988
0.862139
0.70428
0.539753
0.373884
0.20748
0.040153
2.87118
3.26638
0.673595
0.977844
0.862978
0.704512
0.539804
0.373908
0.207643
0.0416183
2.8532
3.14359
0.825139
0.985952
0.864257
0.704807
0.539867
0.373933
0.207786
0.0427433
2.83089
3.03788
0.955022
0.996749
0.865925
0.705156
0.539939
0.373957
0.207901
0.0435605
2.80537
2.94724
1.06608
1.00925
0.867907
0.705551
0.540019
0.373981
0.207982
0.0440931
2.77829
2.8696
1.16079
1.02266
0.870114
0.705978
0.540104
0.374001
0.208025
0.0443559
2.75342
2.80308
1.2412
1.03629
0.872452
0.706423
0.540191
0.374017
0.208028
0.0443564
2.73296
2.74622
1.30904
1.04961
0.874827
0.706872
0.540277
0.37403
0.207991
0.0440946
2.71798
2.69778
1.36575
1.06218
0.877148
0.707308
0.540359
0.374037
0.207916
0.043563
2.70906
2.6568
1.41258
1.07364
0.879331
0.707717
0.540436
0.374041
0.207805
0.0427466
2.70581
2.62261
1.45056
1.08373
0.881298
0.708084
0.540503
0.37404
0.207667
0.0416223
2.70685
2.5947
1.48058
1.09224
0.882985
0.708395
0.540559
0.374036
0.207508
0.0401576
2.70917
2.57299
1.50336
1.09901
0.884336
0.708641
0.540601
0.374029
0.20734
0.0383096
2.71205
2.55751
1.51947
1.10392
0.885306
0.708812
0.540629
0.374022
0.207179
0.0360222
2.71558
2.54809
1.52935
1.10691
0.885863
0.7089
0.540641
0.374014
0.207044
0.0332217
2.71895
2.54476
1.53328
1.10788
0.885979
0.7089
0.540636
0.374007
0.20696
0.0297509
0
0
0.648094
1.00552
0.862634
0.704138
0.539714
0.373821
0.206671
0.0245081
0
0
0.657224
0.998047
0.862291
0.7041
0.539707
0.373823
0.206749
0.0276858
0
0
0.628108
0.995539
0.862143
0.704126
0.539714
0.373833
0.20688
0.0303724
0
0
0.651158
0.987637
0.862224
0.704215
0.539736
0.373849
0.207039
0.0325971
2.89519
3.169
0.696994
0.983618
0.862623
0.704369
0.539771
0.373869
0.207207
0.0344096
2.88537
3.11652
0.797949
0.985109
0.863417
0.704588
0.539819
0.373892
0.207368
0.0358538
2.86816
3.0478
0.9028
0.991229
0.864622
0.704867
0.539879
0.373916
0.20751
0.0369662
2.84518
2.97479
1.00391
1.0005
0.866204
0.7052
0.539947
0.37394
0.207624
0.0377759
2.82011
2.90387
1.09703
1.01185
0.8681
0.705578
0.540023
0.373962
0.207705
0.0383042
2.7957
2.83831
1.18038
1.0244
0.870226
0.705989
0.540104
0.373982
0.207747
0.0385651
2.77341
2.7795
1.25348
1.03739
0.872491
0.706419
0.540187
0.373997
0.20775
0.0385655
2.75448
2.72787
1.31657
1.05022
0.874801
0.706852
0.54027
0.374009
0.207713
0.0383055
2.73994
2.68333
1.37018
1.06243
0.877066
0.707275
0.540349
0.374016
0.207638
0.0377781
2.73031
2.6456
1.41499
1.07363
0.879201
0.707672
0.540422
0.374018
0.207528
0.0369691
2.72531
2.61436
1.4517
1.08353
0.88113
0.708028
0.540486
0.374017
0.20739
0.0358573
2.72453
2.5893
1.48096
1.0919
0.882786
0.708331
0.54054
0.374012
0.207232
0.0344136
2.72739
2.5702
1.50333
1.09858
0.884113
0.70857
0.540581
0.374006
0.207066
0.0326014
2.7321
2.5568
1.51929
1.10344
0.885068
0.708735
0.540607
0.373998
0.206908
0.0303767
2.73603
2.54893
1.5292
1.10641
0.885619
0.708822
0.540619
0.37399
0.206777
0.02769
2.73863
2.54625
1.53316
1.10739
0.885741
0.708824
0.540614
0.373984
0.206698
0.0245119

VECTORS velocity float
0 0 0
0 0 0
0.886805 -0.0343965 0.000381928
0.73119 -0.00467344 2.92714e-05
0.786304 -0.000856138 7.15589e-06
0.796652 -0.000182956 1.4986e-06
0.79889 -4.17397e-05 3.11736e-07
0.799405 -9.87554e-06 -2.01217e-07
0.799571 -4.62102e-06 -3.87775e-06
0.800986 -9.57568e-05 -7.85247e-05
0 0 0
0 0 0
-0.200333 -0.103359 0.000376453
0.735364 -0.0140913 2.68188e-05
0.791017 -0.00255014 7.12854e-06
0.801155 -0.00054615 1.51596e-06
0.803361 -0.000124708 3.17249e-07
0.80387 -2.94982e-05 -2.01681e-07
0.804026 -1.30591e-05 -3.93698e-06
0.804355 -0.000177321 -8.25988e-05
0 0 0
0 0 0
0.896835 -0.173516 0.000706211
0.744737 -0.0227929 1.55682e-05
0.791938 -0.00416199 6.48807e-06
0.801336 -0.000896181 1.43317e-06
0.803416 -0.000205008 3.03661e-07
0.803898 -4.84737e-05 -2.05746e-07
0.804041 -1.98313e-05 -3.98172e-06
0.804377 -0.000149647 -8.43224e-05
0 0 0
0 0 0
-0.185035 -0.245096 0.000224801
0.752226 -0.0301776 2.22137e-05
0.79321 -0.00562089 5.90674e-06
0.801569 -0.00122054 1.29739e-06
0.803466 -0.000279978 2.78022e-07
0.803909 -6.6173e-05 -2.12555e-07
0.804037 -2.49824e-05 -4.01703e-06
0.804385 -0.000124138 -8.52692e-05
0.491499 -0.0214503 -0.0450314
1.00953 -0.00372689 -0.00822801
0.916793 -0.265367 0.00276762
0.76743 -0.0358083 7.10864e-05
0.794813 -0.00687933 5.46566e-06
0.801867 -0.00151031 1.12289e-06
0.803531 -0.000347682 2.42927e-07
0.803924 -8.21458e-05 -2.21441e-07
0.804035 -2.86993e-05 -4.04417e-06
0.804392 -0.00010136 -8.58073e-05
0.54215 -0.0575225 -0.0501297
1.01032 -0.0110918 -0.00698464
0.924555 -0.234794 0.00170778
0.779815 -0.0392901 9.16142e-05
0.796621 -0.00790293 4.74307e-06
0.802219 -0.00175805 9.16489e-07
0.803608 -0.000406418 2.00139e-07
0.803941 -9.59972e-05 -2.31971e-07
0.804035 -3.11322e-05 -4.06493e-06
0.804398 -8.09118e-05 -8.61221e-05
0.585106 -0.0795167 -0.0571886
1.00301 -0.0173768 -0.00635403
0.923376 -0.206601 0.000897265
0.790424 -0.0410908 5.86565e-05
0.798547 -0.00867448 3.47924e-06
0.802613 -0.00195786 6.86724e-07
0.803696 -0.000454742 1.51564e-07
0.803961 -0.000107392 -2.43743e-07
0.804037 -3.24019e-05 -4.08072e-06
0.804403 -6.23295e-05 -8.63097e-05
0.621862 -0.0875143 -0.0646746
0.997725 -0.0215994 -0.00609623
0.92231 -0.181304 0.000414824
0.799627 -0.0415261 3.27582e-05
0.800516 -0.00918891 2.06053e-06
0.803038 -0.00210555 4.43698e-07
0.803792 -0.000491508 9.89517e-08
0.803983 -0.000116064 -2.56387e-07
0.80404 -3.26105e-05 -4.09258e-06
0.804408 -4.51443e-05 -8.64214e-05
0.651835 -0.0829713 -0.0715687
0.993683 -0.0237239 -0.00603943
0.921406 -0.158604 0.000106835
0.807616 -0.0408631 1.28137e-05
0.802472 -0.00945046 6.41369e-07
0.803479 -0.00219854 1.96501e-07
0.803894 -0.000515889 4.3956e-08
0.804007 -0.000121815 -2.69547e-07
0.804044 -3.18515e-05 -4.10121e-06
0.804411 -2.89004e-05 -8.64847e-05
0.674565 -0.0680798 -0.0772091
0.990204 -0.0239202 -0.00607052
0.920612 -0.138173 -9.28131e-05
0.814524 -0.0393187 -2.41942e-06
0.804367 -0.00946995 -6.90028e-07
0.803927 -0.00223583 -4.72769e-08
0.803999 -0.000527385 -1.18786e-08
0.804031 -0.000124524 -2.82873e-07