# vtk DataFile Version 2.0
TestTestTest
ASCII

DATASET STRUCTURED_GRID
DIMENSIONS 11 21 11
POINTS 2541 float
0 0 0
0.5 0 0
1 0 0
1.5 0 0
2 0 0
2.5 0 0
3 0 0
3.5 0 0
4 0 0
4.5 0 0
5 0 0
0 0.05 0
0.5 0.05 0
1 0.05 0
1.5 0.05 0
2 0.05 0
2.5 0.05 0
3 0.05 0
3.5 0.05 0
4 0.05 0
4.5 0.05 0
5 0.05 0
0 0.1 0
0.5 0.1 0
1 0.1 0
1.5 0.1 0
2 0.1 0
2.5 0.1 0
3 0.1 0
3.5 0.1 0
4 0.1 0
4.5 0.1 0
5 0.1 0
0 0.15 0
0.5 0.15 0
1 0.15 0
1.5 0.15 0
2 0.15 0
2.5 0.15 0
3 0.15 0
3.5 0.15 0
4 0.15 0
4.5 0.15 0
5 0.15 0
0 0.2 0
0.5 0.2 0
1 0.2 0
1.5 0.2 0
2 0.2 0
2.5 0.2 0
3 0.2 0
3.5 0.2 0
4 0.2 0
4.5 0.2 0
5 0.2 0
0 0.25 0
0.5 0.25 0
1 0.25 0
1.5 0.25 0
2 0.25 0
2.5 0.25 0
3 0.25 0
3.5 0.25 0
4 0.25 0
4.5 0.25 0
5 0.25 0
0 0.3 0
0.5 0.3 0
1 0.3 0
1.5 0.3 0
2 0.3 0
2.5 0.3 0
3 0.3 0
3.5 0.3 0
4 0.3 0
4.5 0.3 0
5 0.3 0
0 0.35 0
0.5 0.35 0
1 0.35 0
1.5 0.35 0
2 0.35 0
2.5 0.35 0
3 0.35 0
3.5 0.35 0
4 0.35 0
4.5 0.35 0
5 0.35 0
0 0.4 0
0.5 0.4 0
1 0.4 0
1.5 0.4 0
2 0.4 0
2.5 0.4 0
3 0.4 0
3.5 0.4 0
4 0.4 0
4.5 0.4 0
5 0.4 0
0 0.45 0
0.5 0.45 0
1 0.45 0
1.5 0.45 0
2 0.45 0
2.5 0.45 0
3 0.45 0
3.5 0.45 0
4 0.45 0
4.5 0.45 0
5 0.45 0
0 0.5 0
0.5 0.5 0
1 0.5 0
1.5 0.5 0
2 0.5 0
2.5 0.5 0
3 0.5 0
3.5 0.5 0
4 0.5 0
4.5 0.5 0
5 0.5 0
0 0.55 0
0.5 0.55 0
1 0.55 0
1.5 0.55 0
2 0.55 0
2.5 0.55 0
3 0.55 0
3.5 0.55 0
4 0.55 0
4.5 0.55 0
5 0.55 0
0 0.6 0
0.5 0.6 0
1 0.6 0
1.5 0.6 0
2 0.6 0
2.5 0.6 0
3 0.6 0
3.5 0.6 0
4 0.6 0
4.5 0.6 0
5 0.6 0
0 0.65 0
0.5 0.65 0
1 0.65 0
1.5 0.65 0
2 0.65 0
2.5 0.65 0
3 0.65 0
3.5 0.65 0
4 0.65 0
4.5 0.65 0
5 0.65 0
0 0.7 0
0.5 0.7 0
1 0.7 0
1.5 0.7 0
2 0.7 0
2.5 0.7 0
3 0.7 0
3.5 0.7 0
4 0.7 0
4.5 0.7 0
5 0.7 0
0 0.75 0
0.5 0.75 0
1 0.75 0
1.5 0.75 0
2 0.75 0
2.5 0.75 0
3 0.75 0
3.5 0.75 0
4 0.75 0
4.5 0.75 0
5 0.75 0
0 0.8 0
0.5 0.8 0
1 0.8 0
1.5 0.8 0
2 0.8 0
2.5 0.8 0
3 0.8 0
3.5 0.8 0
4 0.8 0
4.5 0.8 0
5 0.8 0
0 0.85 0
0.5 0.85 0
1 0.85 0
1.5 0.85 0
2 0.85 0
2.5 0.85 0
3 0.85 0
3.5 0.85 0
4 0.85 0
4.5 0.85 0
5 0.85 0
0 0.9 0
0.5 0.9 0
1 0.9 0
1.5 0.9 0
2 0.9 0
2.5 0.9 0
3 0.9 0
3.5 0.9 0
4 0.9 0
4.5 0.9 0
5 0.9 0
0 0.95 0
0.5 0.95 0
1 0.95 0
1.5 0.95 0
2 0.95 0
2.5 0.95 0
3 0.95 0
3.5 0.95 0
4 0.95 0
4.5 0.95 0
5 0.95 0
0 1 0
0.5 1 0
1 1 0
1.5 1 0
2 1 0
2.5 1 0
3 1 0
3.5 1 0
4 1 0
4.5 1 0
5 1 0
0 0 0.1
0.5 0 0.1
1 0 0.1
1.5 0 0.1
2 0 0.1
2.5 0 0.1
3 0 0.1
3.5 0 0.1
4 0 0.1
4.5 0 0.1
5 0 0.1
0 0.05 0.1
0.5 0.05 0.1
1 0.05 0.1
1.5 0.05 0.1
2 0.05 0.1
2.5 0.05 0.1
3 0.05 0.1
3.5 0.05 0.1
4 0.05 0.1
4.5 0.05 0.1
5 0.05 0.1
0 0.1 0.1
0.5 0.1 0.1
1 0.1 0.1
1.5 0.1 0.1
2 0.1 0.1
2.5 0.1 0.1
3 0.1 0.1
3.5 0.1 0.1
4 0.1 0.1
4.5 0.1 0.1
5 0.1 0.1
0 0.15 0.1
0.5 0.15 0.1
1 0.15 0.1
1.5 0.15 0.1
2 0.15 0.1
2.5 0.15 0.1
3 0.15 0.1
3.5 0.15 0.1
4 0.15 0.1
4.5 0.15 0.1
5 0.15 0.1
0 0.2 0.1
0.5 0.2 0.1
1 0.2 0.1
1.5 0.2 0.1
2 0.2 0.1
2.5 0.2 0.1
3 0.2 0.1
3.5 0.2 0.1
4 0.2 0.1
4.5 0.2 0.1
5 0.2 0.1
0 0.25 0.1
0.5 0.25 0.1
1 0.25 0.1
1.5 0.25 0.1
2 0.25 0.1
2.5 0.25 0.1
3 0.25 0.1
3.5 0.25 0.1
4 0.25 0.1
4.5 0.25 0.1
5 0.25 0.1
0 0.3 0.1
0.5 0.3 0.1
1 0.3 0.1
1.5 0.3 0.1
2 0.3 0.1
2.5 0.3 0.1
3 0.3 0.1
3.5 0.3 0.1
4 0.3 0.1
4.5 0.3 0.1
5 0.3 0.1
0 0.35 0.1
0.5 0.35 0.1
1 0.35 0.1
1.5 0.35 0.1
2 0.35 0.1
2.5 0.35 0.1
3 0.35 0.1
3.5 0.35 0.1
4 0.35 0.1
4.5 0.35 0.1
5 0.35 0.1
0 0.4 0.1
0.5 0.4 0.1
1 0.4 0.1
1.5 0.4 0.1
2 0.4 0.1
2.5 0.4 0.1
3 0.4 0.1
3.5 0.4 0.1
4 0.4 0.1
4.5 0.4 0.1
5 0.4 0.1
0 0.45 0.1
0.5 0.45 0.1
1 0.45 0.1
1.5 0.45 0.1
2 0.45 0.1
2.5 0.45 0.1
3 0.45 0.1
3.5 0.45 0.1
4 0.45 0.1
4.5 0.45 0.1
5 0.45 0.1
0 0.5 0.1
0.5 0.5 0.1
1 0.5 0.1
1.5 0.5 0.1
2 0.5 0.1
2.5 0.5 0.1
3 0.5 0.1
3.5 0.5 0.1
4 0.5 0.1
4.5 0.5 0.1
5 0.5 0.1
0 0.55 0.1
0.5 0.55 0.1
1 0.55 0.1
1.5 0.55 0.1
2 0.55 0.1
2.5 0.55 0.1
3 0.55 0.1
3.5 0.55 0.1
4 0.55 0.1
4.5 0.55 0.1
5 0.55 0.1
0 0.6 0.1
0.5 0.6 0.1
1 0.6 0.1
1.5 0.6 0.1
2 0.6 0.1
2.5 0.6 0.1
3 0.6 0.1
3.5 0.6 0.1
4 0.6 0.1
4.5 0.6 0.1
5 0.6 0.1
0 0.65 0.1
0.5 0.65 0.1
1 0.65 0.1
1.5 0.65 0.1
2 0.65 0.1
2.5 0.65 0.1
3 0.65 0.1
3.5 0.65 0.1
4 0.65 0.1
4.5 0.65 0.1
5 0.65 0.1
0 0.7 0.1
0.5 0.7 0.1
1 0.7 0.1
1.5 0.7 0.1
2 0.7 0.1
2.5 0.7 0.1
3 0.7 0.1
3.5 0.7 0.1
4 0.7 0.1
4.5 0.7 0.1
5 0.7 0.1
0 0.75 0.1
0.5 0.75 0.1
1 0.75 0.1
1.5 0.75 0.1
2 0.75 0.1
2.5 0.75 0.1
3 0.75 0.1
3.5 0.75 0.1
4 0.75 0.1
4.5 0.75 0.1
5 0.75 0.1
0 0.8 0.1
0.5 0.8 0.1
1 0.8 0.1
1.5 0.8 0.1
2 0.8 0.1
2.5 0.8 0.1
3 0.8 0.1
3.5 0.8 0.1
4 0.8 0.1
4.5 0.8 0.1
5 0.8 0.1
0 0.85 0.1
0.5 0.85 0.1
1 0.85 0.1
1.5 0.85 0.1
2 0.85 0.1
2.5 0.85 0.1
3 0.85 0.1
3.5 0.85 0.1
4 0.85 0.1
4.5 0.85 0.1
5 0.85 0.1
0 0.9 0.1
0.5 0.9 0.1
1 0.9 0.1
1.5 0.9 0.1
2 0.9 0.1
2.5 0.9 0.1
3 0.9 0.1
3.5 0.9 0.1
4 0.9 0.1
4.5 0.9 0.1
5 0.9 0.1
0 0.95 0.1
0.5 0.95 0.1
1 0.95 0.1
1.5 0.95 0.1
2 0.95 0.1
2.5 0.95 0.1
3 0.95 0.1
3.5 0.95 0.1
4 0.95 0.1
4.5 0.95 0.1
5 0.95 0.1
0 1 0.1
0.5 1 0.1
1 1 0.1
1.5 1 0.1
2 1 0.1
2.5 1 0.1
3 1 0.1
3.5 1 0.1
4 1 0.1
4.5 1 0.1
5 1 0.1
0 0 0.2
0.5 0 0.2
1 0 0.2
1.5 0 0.2
2 0 0.2
2.5 0 0.2
3 0 0.2
3.5 0 0.2
4 0 0.2
4.5 0 0.2
5 0 0.2
0 0.05 0.2
0.5 0.05 0.2
1 0.05 0.2
1.5 0.05 0.2
2 0.05 0.2
2.5 0.05 0.2
3 0.05 0.2
3.5 0.05 0.2
4 0.05 0.2
4.5 0.05 0.2
5 0.05 0.2
0 0.1 0.2
0.5 0.1 0.2
1 0.1 0.2
1.5 0.1 0.2
2 0.1 0.2
2.5 0.1 0.2
3 0.1 0.2
3.5 0.1 0.2
4 0.1 0.2
4.5 0.1 0.2
5 0.1 0.2
0 0.15 0.2
0.5 0.15 0.2
1 0.15 0.2
1.5 0.15 0.2
2 0.15 0.2
2.5 0.15 0.2
3 0.15 0.2
3.5 0.15 0.2
4 0.15 0.2
4.5 0.15 0.2
5 0.15 0.2
0 0.2 0.2
0.5 0.2 0.2
1 0.2 0.2
1.5 0.2 0.2
2 0.2 0.2
2.5 0.2 0.2
3 0.2 0.2
3.5 0.2 0.2
4 0.2 0.2
4.5 0.2 0.2
5 0.2 0.2
0 0.25 0.2
0.5 0.25 0.2
1 0.25 0.2
1.5 0.25 0.2
2 0.25 0.2
2.5 0.25 0.2
3 0.25 0.2
3.5 0.25 0.2
4 0.25 0.2
4.5 0.25 0.2
5 0.25 0.2
0 0.3 0.2
0.5 0.3 0.2
1 0.3 0.2
1.5 0.3 0.2
2 0.3 0.2
2.5 0.3 0.2
3 0.3 0.2
3.5 0.3 0.2
4 0.3 0.2
4.5 0.3 0.2
5 0.3 0.2
0 0.35 0.2
0.5 0.35 0.2
1 0.35 0.2
1.5 0.35 0.2
2 0.35 0.2
2.5 0.35 0.2
3 0.35 0.2
3.5 0.35 0.2
4 0.35 0.2
4.5 0.35 0.2
5 0.35 0.2
0 0.4 0.2
0.5 0.4 0.2
1 0.4 0.2
1.5 0.4 0.2
2 0.4 0.2
2.5 0.4 0.2
3 0.4 0.2
3.5 0.4 0.2
4 0.4 0.2
4.5 0.4 0.2
5 0.4 0.2
0 0.45 0.2
0.5 0.45 0.2
1 0.45 0.2
1.5 0.45 0.2
2 0.45 0.2
2.5 0.45 0.2
3 0.45 0.2
3.5 0.45 0.2
4 0.45 0.2
4.5 0.45 0.2
5 0.45 0.2
0 0.5 0.2
0.5 0.5 0.2
1 0.5 0.2
1.5 0.5 0.2
2 0.5 0.2
2.5 0.5 0.2
3 0.5 0.2
3.5 0.5 0.2
4 0.5 0.2
4.5 0.5 0.2
5 0.5 0.2
0 0.55 0.2
0.5 0.55 0.2
1 0.55 0.2
1.5 0.55 0.2
2 0.55 0.2
2.5 0.55 0.2
3 0.55 0.2
3.5 0.55 0.2
4 0.55 0.2
4.5 0.55 0.2
5 0.55 0.2
0 0.6 0.2
0.5 0.6 0.2
1 0.6 0.2
1.5 0.6 0.2
2 0.6 0.2
2.5 0.6 0.2
3 0.6 0.2
3.5 0.6 0.2
4 0.6 0.2
4.5 0.6 0.2
5 0.6 0.2
0 0.65 0.2
0.5 0.65 0.2
1 0.65 0.2
1.5 0.65 0.2
2 0.65 0.2
2.5 0.65 0.2
3 0.65 0.2
3.5 0.65 0.2
4 0.65 0.2
4.5 0.65 0.2
5 0.65 0.2
0 0.7 0.2
0.5 0.7 0.2
1 0.7 0.2
1.5 0.7 0.2
2 0.7 0.2
2.5 0.7 0.2
3 0.7 0.2
3.5 0.7 0.2
4 0.7 0.2
4.5 0.7 0.2
5 0.7 0.2
0 0.75 0.2
0.5 0.75 0.2
1 0.75 0.2
1.5 0.75 0.2
2 0.75 0.2
2.5 0.75 0.2
3 0.75 0.2
3.5 0.75 0.2
4 0.75 0.2
4.5 0.75 0.2
5 0.75 0.2
0 0.8 0.2
0.5 0.8 0.2
1 0.8 0.2
1.5 0.8 0.2
2 0.8 0.2
2.5 0.8 0.2
3 0.8 0.2
3.5 0.8 0.2
4 0.8 0.2
4.5 0.8 0.2
5 0.8 0.2
0 0.85 0.2
0.5 0.85 0.2
1 0.85 0.2
1.5 0.85 0.2
2 0.85 0.2
2.5 0.85 0.2
3 0.85 0.2
3.5 0.85 0.2
4 0.85 0.2
4.5 0.85 0.2
5 0.85 0.2
0 0.9 0.2
0.5 0.9 0.2
1 0.9 0.2
1.5 0.9 0.2
2 0.9 0.2
2.5 0.9 0.2
3 0.9 0.2
3.5 0.9 0.2
4 0.9 0.2
4.5 0.9 0.2
5 0.9 0.2
0 0.95 0.2
0.5 0.95 0.2
1 0.95 0.2
1.5 0.95 0.2
2 0.95 0.2
2.5 0.95 0.2
3 0.95 0.2
3.5 0.95 0.2
4 0.95 0.2
4.5 0.95 0.2
5 0.95 0.2
0 1 0.2
0.5 1 0.2
1 1 0.2
1.5 1 0.2
2 1 0.2
2.5 1 0.2
3 1 0.2
3.5 1 0.2
4 1 0.2
4.5 1 0.2
5 1 0.2
0 0 0.3
0.5 0 0.3
1 0 0.3
1.5 0 0.3
2 0 0.3
2.5 0 0.3
3 0 0.3
3.5 0 0.3
4 0 0.3
4.5 0 0.3
5 0 0.3
0 0.05 0.3
0.5 0.05 0.3
1 0.05 0.3
1.5 0.05 0.3
2 0.05 0.3
2.5 0.05 0.3
3 0.05 0.3
3.5 0.05 0.3
4 0.05 0.3
4.5 0.05 0.3
5 0.05 0.3
0 0.1 0.3
0.5 0.1 0.3
1 0.1 0.3
1.5 0.1 0.3
2 0.1 0.3
2.5 0.1 0.3
3 0.1 0.3
3.5 0.1 0.3
4 0.1 0.3
4.5 0.1 0.3
5 0.1 0.3
0 0.15 0.3
0.5 0.15 0.3
1 0.15 0.3
1.5 0.15 0.3
2 0.15 0.3
2.5 0.15 0.3
3 0.15 0.3
3.5 0.15 0.3
4 0.15 0.3
4.5 0.15 0.3
5 0.15 0.3
0 0.2 0.3
0.5 0.2 0.3
1 0.2 0.3
1.5 0.2 0.3
2 0.2 0.3
2.5 0.2 0.3
3 0.2 0.3
3.5 0.2 0.3
4 0.2 0.3
4.5 0.2 0.3
5 0.2 0.3
0 0.25 0.3
0.5 0.25 0.3
1 0.25 0.3
1.5 0.25 0.3
2 0.25 0.3
2.5 0.25 0.3
3 0.25 0.3
3.5 0.25 0.3
4 0.25 0.3
4.5 0.25 0.3
5 0.25 0.3
0 0.3 0.3
0.5 0.3 0.3
1 0.3 0.3
1.5 0.3 0.3
2 0.3 0.3
2.5 0.3 0.3
3 0.3 0.3
3.5 0.3 0.3
4 0.3 0.3
4.5 0.3 0.3
5 0.3 0.3
0 0.35 0.3
0.5 0.35 0.3
1 0.35 0.3
1.5 0.35 0.3
2 0.35 0.3
2.5 0.35 0.3
3 0.35 0.3
3.5 0.35 0.3
4 0.35 0.3
4.5 0.35 0.3
5 0.35 0.3
0 0.4 0.3
0.5 0.4 0.3
1 0.4 0.3
1.5 0.4 0.3
2 0.4 0.3
2.5 0.4 0.3
3 0.4 0.3
3.5 0.4 0.3
4 0.4 0.3
4.5 0.4 0.3
5 0.4 0.3
0 0.45 0.3
0.5 0.45 0.3
1 0.45 0.3
1.5 0.45 0.3
2 0.45 0.3
2.5 0.45 0.3
3 0.45 0.3
3.5 0.45 0.3
4 0.45 0.3
4.5 0.45 0.3
5 0.45 0.3
0 0.5 0.3
0.5 0.5 0.3
1 0.5 0.3
1.5 0.5 0.3
2 0.5 0.3
2.5 0.5 0.3
3 0.5 0.3
3.5 0.5 0.3
4 0.5 0.3
4.5 0.5 0.3
5 0.5 0.3
0 0.55 0.3
0.5 0.55 0.3
1 0.55 0.3
1.5 0.55 0.3
2 0.55 0.3
2.5 0.55 0.3
3 0.55 0.3
3.5 0.55 0.3
4 0.55 0.3
4.5 0.55 0.3
5 0.55 0.3
0 0.6 0.3
0.5 0.6 0.3
1 0.6 0.3
1.5 0.6 0.3
2 0.6 0.3
2.5 0.6 0.3
3 0.6 0.3
3.5 0.6 0.3
4 0.6 0.3
4.5 0.6 0.3
5 0.6 0.3
0 0.65 0.3
0.5 0.65 0.3
1 0.65 0.3
1.5 0.65 0.3
2 0.65 0.3
2.5 0.65 0.3
3 0.65 0.3
3.5 0.65 0.3
4 0.65 0.3
4.5 0.65 0.3
5 0.65 0.3
0 0.7 0.3
0.5 0.7 0.3
1 0.7 0.3
1.5 0.7 0.3
2 0.7 0.3
2.5 0.7 0.3
3 0.7 0.3
3.5 0.7 0.3
4 0.7 0.3
4.5 0.7 0.3
5 0.7 0.3
0 0.75 0.3
0.5 0.75 0.3
1 0.75 0.3
1.5 0.75 0.3
2 0.75 0.3
2.5 0.75 0.3
3 0.75 0.3
3.5 0.75 0.3
4 0.75 0.3
4.5 0.75 0.3
5 0.75 0.3
0 0.8 0.3
0.5 0.8 0.3
1 0.8 0.3
1.5 0.8 0.3
2 0.8 0.3
2.5 0.8 0.3
3 0.8 0.3
3.5 0.8 0.3
4 0.8 0.3
4.5 0.8 0.3
5 0.8 0.3
0 0.85 0.3
0.5 0.85 0.3
1 0.85 0.3
1.5 0.85 0.3
2 0.85 0.3
2.5 0.85 0.3
3 0.85 0.3
3.5 0.85 0.3
4 0.85 0.3
4.5 0.85 0.3
5 0.85 0.3
0 0.9 0.3
0.5 0.9 0.3
1 0.9 0.3
1.5 0.9 0.3
2 0.9 0.3
2.5 0.9 0.3
3 0.9 0.3
3.5 0.9 0.3
4 0.9 0.3
4.5 0.9 0.3
5 0.9 0.3
0 0.95 0.3
0.5 0.95 0.3
1 0.95 0.3
1.5 0.95 0.3
2 0.95 0.3
2.5 0.95 0.3
3 0.95 0.3
3.5 0.95 0.3
4 0.95 0.3
4.5 0.95 0.3
5 0.95 0.3
0 1 0.3
0.5 1 0.3
1 1 0.3
1.5 1 0.3
2 1 0.3
2.5 1 0.3
3 1 0.3
3.5 1 0.3
4 1 0.3
4.5 1 0.3
5 1 0.3
0 0 0.4
[...]
CELL_DATA 2000
SCALARS pressure float 1
LOOKUP_TABLE default
0
0
0.886138
0.961802
0.787021
0.632108
0.482427
0.334119
0.185444
0.023879
0
0
0.883379
0.954627
0.786392
0.631977
0.482396
0.334114
0.185448
0.0260622
0
0
0.84949
0.950401
0.78544
0.631777
0.482349
0.334108
0.185516
0.0282176
0
0
0.836039
0.940891
0.784255
0.631523
0.482288
0.3341
0.185623
0.0300446
1.38165
1.51385
0.840326
0.931877
0.782859
0.631225
0.482216
0.334091
0.185743
0.0315262
1.37908
1.51127
0.860504
0.924063
0.781368
0.630893
0.482134
0.33408
0.185861
0.0327018
1.37264
1.50571
0.88577
0.918082
0.779876
0.63054
0.482044
0.334066
0.185965
0.0336044
1.36307
1.49765
0.915827
0.91391
0.778456
0.630175
0.481948
0.334049
0.186047
0.0342595
1.35295
1.48824
0.945204
0.911277
0.777155
0.629807
0.481849
0.334028
0.186102
0.0346857
1.34408
1.47863
0.972001
0.909786
0.775989
0.629444
0.481748
0.334004
0.186127
0.0348952
1.33712
1.46949
0.995795
0.909115
0.774954
0.629091
0.481647
0.333976
0.186119
0.0348939
1.33241
1.4612
1.01647
0.909001
0.774043
0.628754
0.481547
0.333946
0.186081
0.0346819
1.3304
1.45397
1.03408
0.909224
0.773241
0.628437
0.481451
0.333914
0.186012
0.0342531
1.33112
1.44787
1.04875
0.909607
0.772533
0.628141
0.481361
0.333881
0.185917
0.0335956
1.33444
1.44291
1.06063
0.910006
0.771906
0.627871
0.481277
0.333848
0.185801
0.0326908
1.34021
1.43905
1.06992
0.910306
0.771345
0.627627
0.481201
0.333817
0.185672
0.0315132
1.34793
1.43625
1.07677
0.910421
0.770839
0.627412
0.481134
0.333789
0.185543
0.0300298
1.3559
1.43438
1.08137
0.910293
0.77038
0.627227
0.481078
0.333766
0.185428
0.0282013
1.36146
1.43351
1.08392
0.909936
0.769981
0.627079
0.481034
0.333749
0.185354
0.0260447
1.36371
1.43352
1.08436
0.9094
0.769676
0.626979
0.481007
0.33374
0.185346
0.0238608
0
0
0.895615
0.959365
0.786995
0.632072
0.482418
0.334131
0.185621
0.0279659
0
0
0.890968
0.952861
0.786082
0.631902
0.48238
0.334122
0.185596
0.0313003
0
0
0.858493
0.948749
0.785112
0.631694
0.482331
0.334115
0.185709
0.0336777
0
0
0.86444
0.941855
0.783878
0.63144
0.482271
0.334109
0.185841
0.0355314
1.36727
1.51324
0.815053
0.93195
0.782488
0.631148
0.4822
0.334101
0.185974
0.0370333
1.36412
1.52951
0.82687
0.921873
0.78101
0.630828
0.48212
0.334091
0.186099
0.0382241
1.35855
1.52217
0.862652
0.915439
0.779567
0.630489
0.482034
0.334079
0.186208
0.0391376
1.35123
1.50858
0.898957
0.911902
0.778226
0.630138
0.481941
0.334063
0.186293
0.0398001
1.34299
1.49505
0.9333
0.90988
0.777007
0.629785
0.481845
0.334043
0.18635
0.040231
1.335
1.48228
0.964101
0.908865
0.775912
0.629436
0.481748
0.33402
0.186375
0.0404426
1.32873
1.4707
0.990693
0.908565
0.77494
0.629097
0.48165
0.333993
0.186368
0.0404414
1.32447
1.46068
1.01331
0.908733
0.774081
0.628774
0.481554
0.333964
0.186329
0.0402272
1.32229
1.4524
1.03228
0.90917
0.773324
0.628468
0.481461
0.333932
0.186259
0.039794
1.32223
1.44586
1.0479
0.909713
0.772655
0.628184
0.481373
0.333899
0.186161
0.0391292
1.32458
1.44088
1.06042
0.910232
0.77206
0.627924
0.481292
0.333866
0.186041
0.0382135
1.32931
1.43707
1.07008
0.910622
0.771525
0.627688
0.481218
0.333834
0.185905
0.0370208
1.3351
1.43408
1.0771
0.910807
0.771039
0.627479
0.481152
0.333806
0.185762
0.0355171
1.34094
1.43183
1.08168
0.910731
0.770598
0.627298
0.481097
0.333782
0.185623
0.033662
1.34595
1.4308
1.08409
0.910337
0.770183
0.627144
0.481052
0.333765
0.185504
0.0312833
1.34958
1.43201
1.08433
0.909599
0.769795
0.627019
0.481018
0.333756
0.185524
0.0279481
0
0
0.906518
0.959934
0.787106
0.632044
0.482408
0.334152
0.185911
0.0311457
0
0
0.901204
0.954261
0.78616
0.631865
0.482369
0.334144
0.185899
0.0346905
0
0
0.873897
0.951145
0.785211
0.631652
0.482318
0.334138
0.18603
0.0371899
0
0
0.881709
0.945742
0.784041
0.631403
0.482259
0.334133
0.186177
0.039115
1.35235
1.50552
0.808186
0.936187
0.782695
0.631117
0.48219
0.334127
0.186323
0.0406614
1.34895
1.54085
0.792584
0.924267
0.781196
0.630801
0.482112
0.334119
0.186457
0.0418814
1.34615
1.54669
0.824943
0.914907
0.779652
0.630466
0.482027
0.334107
0.186572
0.0428142
1.3466
1.53229
0.873361
0.909689
0.778202
0.63012
0.481937
0.334093
0.186661
0.0434891
1.3489
1.51074
0.916264
0.907582
0.776929
0.629774
0.481844
0.334074
0.18672
0.0439273
1.35119
1.48988
0.952341
0.907013
0.775832
0.629432
0.481749
0.334052
0.186747
0.0441425
1.35228
1.47221
0.982923
0.907188
0.774883
0.629102
0.481654
0.334026
0.18674
0.0441413
1.35148
1.45832
1.00856
0.907764
0.774056
0.628787
0.481561
0.333996
0.1867
0.0439237
1.34914
1.44806
1.02978
0.908534
0.773332
0.628491
0.48147
0.333965
0.186627
0.0434832
1.34524
1.44112
1.04704
0.909347
0.772696
0.628215
0.481385
0.333932
0.186526
0.042806
1.33977
1.43698
1.06074
0.910081
0.77213
0.627962
0.481305
0.333899
0.1864
0.0418712
1.33381
1.43478
1.07104
0.910646
0.771623
0.627733
0.481233
0.333867
0.186255
0.0406493
1.32901
1.4332
1.07814
0.910965
0.771164
0.627529
0.481169
0.333837
0.1861
0.0391012
1.32757
1.43158
1.0825
0.910963
0.770738
0.627351
0.481114
0.333812
0.185946
0.0371747
1.33037
1.43071
1.0847
0.910579
0.770322
0.627195
0.481068
0.333794
0.185808
0.0346741
1.33459
1.43224
1.08489
0.909805
0.769915
0.627064
0.481033
0.333783
0.185816
0.0311282
0
0
0.912185
0.961363
0.78727
0.632034
0.482403
0.334174
0.186167
0.0331566
0
0
0.907148
0.955982
0.78633
0.631854
0.482363
0.334166
0.186158
0.0367458
0
0
0.880026
0.953455
0.785411
0.631641
0.482313
0.334162
0.186297
0.0392882
0
0
0.88443
0.948736
0.784293
0.631396
0.482254
0.334158
0.186452
0.0412479
1.34472
1.51223
0.806867
0.939475
0.783
0.631115
0.482186
0.334153
0.186604
0.0428206
1.34218
1.55189
0.778846
0.927156
0.781526
0.630805
0.482109
0.334145
0.186743
0.0440602
1.34277
1.56361
0.795646
0.916241
0.779932
0.630473
0.482026
0.334135
0.186862
0.045007
1.35109
1.55126
0.842294
0.909142
0.778364
0.630126
0.481937
0.334121
0.186954
0.0456917
1.36609
1.52515
0.895131
0.906013
0.776965
0.629777
0.481845
0.334103
0.187015
0.0461359
1.38269
1.49652
0.939627
0.905258
0.775783
0.629435
0.481751
0.334081
0.187043
0.0463539
1.39519
1.47075
0.975147
0.905574
0.774791
0.629105
0.481658
0.334056
0.187037
0.0463528
1.40034
1.45062
1.00418
0.906389
0.773951
0.628791
0.481566
0.334027
0.186995
0.0461324
1.39795
1.43755
1.02804
0.907427
0.77323
0.628497
0.481477
0.333995
0.186921
0.0456858
1.38785
1.43119
1.04709
0.908532
0.772612
0.628225
0.481393
0.333962
0.186817
0.044999
1.37051
1.42957
1.06154
0.909568
0.772083
0.627977
0.481314
0.333929
0.186687
0.0440501
1.34975
1.43015
1.07193
0.910394
0.771621
0.627755
0.481243
0.333896
0.186537
0.0428087
1.33225
1.43109
1.07895
0.910891
0.771196
0.627556
0.48118
0.333866
0.186376
0.0412343
1.32326
1.43133
1.08321
0.910987
0.77079
0.62738
0.481126
0.333841
0.186213
0.0392732
1.32304
1.43124
1.08531
0.910645
0.770382
0.627225
0.481079
0.333821
0.186069
0.0367296
1.3266
1.43308
1.08548
0.909886
0.769977
0.627093
0.481044
0.33381
0.186073
0.0331395
0
0
0.913755
0.962271
0.787382
0.632032
0.4824
0.334187
0.186311
0.0341209
0
0
0.908459
0.956998
0.786449
0.631852
0.482361
0.33418
0.186303
0.0377209
0
0
0.88048
0.954706
0.785545
0.63164
0.482311
0.334176
0.186444
0.0402777
0
0
0.883512
0.950257
0.784452
0.631397
0.482252
0.334173
0.186602
0.042251
1.34207
1.51845
0.804597
0.941137
0.783184
0.631119
0.482184
0.334168
0.186757
0.0438351
1.3402
1.55935
0.774391
0.928739
0.781732
0.630812
0.482108
0.334161
0.186899
0.0450838
1.34348
1.57224
0.786486
0.917532
0.780141
0.630483
0.482026
0.334151
0.18702
0.0460375
1.35741
1.56016
0.826688
0.909782
0.778542
0.630139
0.481938
0.334138
0.187113
0.0467271
1.38013
1.53237
0.878173
0.905699
0.777065
0.629788
0.481847
0.33412
0.187176
0.0471745
1.40538
1.49984
0.9279
0.904253
0.775785
0.62944
0.481753
0.334099
0.187204
0.0473941
1.42583
1.46951
0.969777
0.90435
0.774714
0.629104
0.48166
0.334073
0.187197
0.0473929
1.43531
1.44531
1.00283
0.905252
0.77383
0.628787
0.481568
0.334045
0.187156
0.047171
1.43276
1.43022
1.02825
0.906539
0.773111
0.628493
0.48148
0.334013
0.187081
0.0467213
1.41804
1.4242
1.04756
0.907927
0.772526
0.628225
0.481397
0.33398
0.186975
0.0460296
1.39253
1.42415
1.06197
0.909198
0.772034
0.627982
0.481319
0.333946
0.186843
0.0450739
1.36306
1.42685
1.07236
0.910191
0.7716
0.627763
0.481248
0.333914
0.186691
0.0438234
1.33788
1.42964
1.07938
0.910796
0.771196
0.627566
0.481185
0.333883
0.186527
0.0422376
1.32343
1.43113
1.0836
0.910955
0.770803
0.627393
0.481131
0.333857
0.186361
0.0402629
1.32071
1.43165
1.08566
0.910645
0.770402
0.627238
0.481085
0.333837
0.186214
0.0377048
1.3237
1.43374
1.08583
0.9099
0.769999
0.627106
0.481049
0.333825
0.186217
0.0341039
0
0
0.913755
0.962271
0.787382
0.632032
0.4824
0.334187
0.186311
0.0341209
0
0
0.908459
0.956998
0.786449
0.631852
0.482361
0.33418
0.186303
0.0377209
0
0
0.88048
0.954706
0.785545
0.63164
0.482311
0.334176
0.186444
0.0402777
0
0
0.883512
0.950257
0.784452
0.631397
0.482252
0.334173
0.186602
0.042251
1.34207
1.51845
0.804597
0.941137
0.783184
0.631119
0.482184
0.334168
0.186757
0.0438351
1.3402
1.55935
0.774391
0.928739
0.781732
0.630812
0.482108
0.334161
0.186899
0.0450838
1.34348
1.57224
0.786486
0.917532
0.780141
0.630483
0.482026
0.334151
0.18702
0.0460375
1.35741
1.56016
0.826688
0.909782
0.778542
0.630139
0.481938
0.334138
0.187113
0.0467271
1.38013
1.53237
0.878173
0.905699
0.777065
0.629788
0.481847
0.33412
0.187176
0.0471745
1.40538
1.49984
0.9279
0.904253
0.775785
0.62944
0.481753
0.334099
0.187204
0.0473941
1.42583
1.46951
0.969777
0.90435
0.774714
0.629104
0.48166
0.334073
0.187197
0.0473929
1.43531
1.44531
1.00283
0.905252
0.77383
0.628787
0.481568
0.334045
0.187156
0.047171
1.43276
1.43022
1.02825
0.906539
0.773111
0.628493
0.48148
0.334013
0.187081
0.0467213
1.41804
1.4242
1.04756
0.907927
0.772526
0.628225
0.481397
0.33398
0.186975
0.0460296
1.39253
1.42415
1.06197
0.909198
0.772034
0.627982
0.481319
0.333946
0.186843
0.0450739
1.36306
1.42685
1.07236
0.910191
0.7716
0.627763
0.481248
0.333914
0.186691
0.0438234
1.33788
1.42964
1.07938
0.910796
0.771196
0.627566
0.481185
0.333883
0.186527
0.0422376
1.32343
1.43113
1.0836
0.910955
0.770803
0.627393
0.481131
0.333857
0.186361
0.0402629
1.32071
1.43165
1.08566
0.910645
0.770402
0.627238
0.481085
0.333837
0.186214
0.0377048
1.3237
1.43374
1.08583
0.9099
0.769999
0.627106
0.481049
0.333825
0.186217
0.0341039
0
0
0.912185
0.961363
0.78727
0.632034
0.482403
0.334174
0.186167
0.0331566
0
0
0.907148
0.955982
0.78633
0.631854
0.482363
0.334166
0.186158
0.0367458
0
0
0.880026
0.953455
0.785411
0.631641
0.482313
0.334162
0.186297
0.0392882
0
0
0.88443
0.948736
0.784293
0.631396
0.482254
0.334158
0.186452
0.0412479
1.34472
1.51223
0.806867
0.939475
0.783
0.631115
0.482186
0.334153
0.186604
0.0428206
1.34218
1.55189
0.778846
0.927156
0.781526
0.630805
0.482109
0.334145
0.186743
0.0440602
1.34277
1.56361
0.795646
0.916241
0.779932
0.630473
0.482026
0.334135
0.186862
0.045007
1.35109
1.55126
0.842294
0.909142
0.778364
0.630126
0.481937
0.334121
0.186954
0.0456917
1.36609
1.52515
0.895131
0.906013
0.776965
0.629777
0.481845
0.334103
0.187015
0.0461359
1.38269
1.49652
0.939627
0.905258
0.775783
0.629435
0.481751
0.334081
0.187043
0.0463539
1.39519
1.47075
0.975147
0.905574
0.774791
0.629105
0.481658
0.334056
0.187037
0.0463528
1.40034
1.45062
1.00418
0.906389
0.773951
0.628791
0.481566
0.334027
0.186995
0.0461324
1.39795
1.43755
1.02804
0.907427
0.77323
0.628497
0.481477
0.333995
0.186921
0.0456858
1.38785
1.43119
1.04709
0.908532
0.772612
0.628225
0.481393
0.333962
0.186817
0.044999
1.37051
1.42957
1.06154
0.909568
0.772083
0.627977
0.481314
0.333929
0.186687
0.0440501
1.34975
1.43015
1.07193
0.910394
0.771621
0.627755
0.481243
0.333896
0.186537
0.0428087
1.33225
1.43109
1.07895
0.910891
0.771196
0.627556
0.48118
0.333866
0.186376
0.0412343
1.32326
1.43133
1.08321
0.910987
0.77079
0.62738
0.481126
0.333841
0.186213
0.0392732
1.32304
1.43124
1.08531
0.910645
0.770382
0.627225
0.481079
0.333821
0.186069
0.0367296
1.3266
1.43308
1.08548
0.909886
0.769977
0.627093
0.481044
0.33381
0.186073
0.0331395
0
0
0.906518
0.959934
0.787106
0.632044
0.482408
0.334152
0.185911
0.0311457
0
0
0.901204
0.954261
0.78616
0.631865
0.482369
0.334144
0.185899
0.0346905
0
0
0.873897
0.951145
0.785211
0.631652
0.482318
0.334138
0.18603
0.0371899
0
0
0.881709
0.945742
0.784041
0.631403
0.482259
0.334133
0.186177
0.039115
1.35235
1.50552
0.808186
0.936187
0.782695
0.631117
0.48219
0.334127
0.186323
0.0406614
1.34895
1.54085
0.792584
0.924267
0.781196
0.630801
0.482112
0.334119
0.186457
0.0418814
1.34615
1.54669
0.824943
0.914907
0.779652
0.630466
0.482027
0.334107
0.186572
0.0428142
1.3466
1.53229
0.873361
0.909689
0.778202
0.63012
0.481937
0.334093
0.186661
0.0434891
1.3489
1.51074
0.916264
0.907582
0.776929
0.629774
0.481844
0.334074
0.18672
0.0439273
1.35119
1.48988
0.952341
0.907013
0.775832
0.629432
0.481749
0.334052
0.186747
0.0441425
1.35228
1.47221
0.982923
0.907188
0.774883
0.629102
0.481654
0.334026
0.18674
0.0441413
1.35148
1.45832
1.00856
0.907764
0.774056
0.628787
0.481561
0.333996
0.1867
0.0439237
1.34914
1.44806
1.02978
0.908534
0.773332
0.628491
0.48147
0.333965
0.186627
0.0434832
1.34524
1.44112
1.04704
0.909347
0.772696
0.628215
0.481385
0.333932
0.186526
0.042806
1.33977
1.43698
1.06074
0.910081
0.77213
0.627962
0.481305
0.333899
0.1864
0.0418712
1.33381
1.43478
1.07104
0.910646
0.771623
0.627733
0.481233
0.333867
0.186255
0.0406493
1.32901
1.4332
1.07814
0.910965
0.771164
0.627529
0.481169
0.333837
0.1861
0.0391012
1.32757
1.43158
1.0825
0.910963
0.770738
0.627351
0.481114
0.333812
0.185946
0.0371747
1.33037
1.43071
1.0847
0.910579
0.770322
0.627195
0.481068
0.333794
0.185808
0.0346741
1.33459
1.43224
1.08489
0.909805
0.769915
0.627064
0.481033
0.333783
0.185816
0.0311282
0
0
0.895615
0.959365
0.786995
0.632072
0.482418
0.334131
0.185621
0.0279659
0
0
0.890968
0.952861
0.786082
0.631902
0.48238
0.334122
0.185596
0.0313003
0
0
0.858493
0.948749
0.785112
0.631694
0.482331
0.334115
0.185709
0.0336777
0
0
0.86444
0.941855
0.783878
0.63144
0.482271
0.334109
0.185841
0.0355314
1.36727
1.51324
0.815053
0.93195
0.782488
0.631148
0.4822
0.334101
0.185974
0.0370333
1.36412
1.52951
0.82687
0.921873
0.78101
0.630828
0.48212
0.334091
0.186099
0.0382241
1.35855
1.52217
0.862652
0.915439
0.779567
0.630489
0.482034
0.334079
0.186208
0.0391376
1.35123
1.50858
0.898957
0.911902
0.778226
0.630138
0.481941
0.334063
0.186293
0.0398001
1.34299
1.49505
0.9333
0.90988
0.777007
0.629785
0.481845
0.334043
0.18635
0.040231
1.335
1.48228
0.964101
0.908865
0.775912
0.629436
0.481748
0.33402
0.186375
0.0404426
1.32873
1.4707
0.990693
0.908565
0.77494
0.629097
0.48165
0.333993
0.186368
0.0404414
1.32447
1.46068
1.01331
0.908733
0.774081
0.628774
0.481554
0.333964
0.186329
0.0402272
1.32229
1.4524
1.03228
0.90917
0.773324
0.628468
0.481461
0.333932
0.186259
0.039794
1.32223
1.44586
1.0479
0.909713
0.772655
0.628184
0.481373
0.333899
0.186161
0.0391292
1.32458
1.44088
1.06042
0.910232
0.77206
0.627924
0.481292
0.333866
0.186041
0.0382135
1.32931
1.43707
1.07008
0.910622
0.771525
0.627688
0.481218
0.333834
0.185905
0.0370208
1.3351
1.43408
1.0771
0.910807
0.771039
0.627479
0.481152
0.333806
0.185762
0.0355171
1.34094
1.43183
1.08168
0.910731
0.770598
0.627298
0.481097
0.333782
0.185623
0.033662
1.34595
1.4308
1.08409
0.910337
0.770183
0.627144
0.481052
0.333765
0.185504
0.0312833
1.34958
1.43201
1.08433
0.909599
0.769795
0.627019
0.481018
0.333756
0.185524
0.0279481
0
0
0.886138
0.961802
0.787021
0.632108
0.482427
0.334119
0.185444
0.023879
0
0
0.883379
0.954627
0.786392
0.631977
0.482396
0.334114
0.185448
0.0260622
0
0
0.84949
0.950401
0.78544
0.631777
0.482349
0.334108
0.185516
0.0282176
0
0
0.836039
0.940891
0.784255
0.631523
0.482288
0.3341
0.185623
0.0300446
1.38165
1.51385
0.840326
0.931877
0.782859
0.631225
0.482216
0.334091
0.185743
0.0315262
1.37908
1.51127
0.860504
0.924063
0.781368
0.630893
0.482134
0.33408
0.185861
0.0327018
1.37264
1.50571
0.88577
0.918082
0.779876
0.63054
0.482044
0.334066
0.185965
0.0336044
1.36307
1.49765
0.915827
0.91391
0.778456
0.630175
0.481948
0.334049
0.186047
0.0342595
1.35295
1.48824
0.945204
0.911277
0.777155
0.629807
0.481849
0.334028
0.186102
0.0346857
1.34408
1.47863
0.972001
0.909786
0.775989
0.629444
0.481748
0.334004
0.186127
0.0348952
1.33712
1.46949
0.995795
0.909115
0.774954
0.629091
0.481647
0.333976
0.186119
0.0348939
1.33241
1.4612
1.01647
0.909001
0.774043
0.628754
0.481547
0.333946
0.186081
0.0346819
1.3304
1.45397
1.03408
0.909224
0.773241
0.628437
0.481451
0.333914
0.186012
0.0342531
1.33112
1.44787
1.04875
0.909607
0.772533
0.628141
0.481361
0.333881
0.185917
0.0335956
1.33444
1.44291
1.06063
0.910006
0.771906
0.627871
0.481277
0.333848
0.185801
0.0326908
1.34021
1.43905
1.06992
0.910306
0.771345
0.627627
0.481201
0.333817
0.185672
0.0315132
1.34793
1.43625
1.07677
0.910421
0.770839
0.627412
0.481134
0.333789
0.185543
0.0300298
1.3559
1.43438
1.08137
0.910293
0.77038
0.627227
0.481078
0.333766
0.185428
0.0282013
1.36146
1.43351
1.08392
0.909936
0.769981
0.627079
0.481034
0.333749
0.185354
0.0260447
1.36371
1.43352
1.08436
0.9094
0.769676
0.626979
0.481007
0.33374
0.185346
0.0238608

VECTORS velocity float
0 0 0
0 0 0
0.727386 -0.0305535 -0.00256581
0.655277 -0.00236244 0.00103767
0.679523 -0.000644928 0.000127879
0.686661 -0.00014666 2.75274e-05
0.688287 -3.27424e-05 6.13963e-06
0.688688 -9.00488e-06 -2.82648e-06
0.689107 -6.98767e-06 -4.89322e-05
0.712791 -0.00161631 -0.00144129
0 0 0
0 0 0
-0.104523 -0.0904967 -0.00207021
0.673677 -0.011646 0.000828498
0.74785 -0.00229066 0.000180672
0.758735 -0.000491032 3.94679e-05
0.760904 -0.000108792 8.63096e-06
0.761423 -2.96773e-05 -2.38577e-06
0.762206 -5.3899e-05 -5.10948e-05
0.771792 -0.0032261 -0.00179926
0 0 0
0 0 0
0.750883 -0.153746 -0.00070719
0.716376 -0.0221119 0.000692612
0.756453 -0.00417946 0.000157711
0.766306 -0.000884233 3.86542e-05
0.768459 -0.000195566 8.71329e-06
0.768976 -5.27259e-05 -2.5732e-06
0.769677 -0.000122347 -5.76637e-05
0.777047 -0.00297075 -0.00185714
0 0 0
0 0 0
-0.0903751 -0.219431 2.89793e-05
0.6926 -0.0313112 5.84152e-05
0.757223 -0.00596908 0.00012892
0.767255 -0.00126371 3.58162e-05
0.769282 -0.000279676 8.17028e-06
0.769763 -7.42513e-05 -2.91775e-06
0.77033 -0.000164513 -6.28313e-05
0.777661 -0.00247098 -0.00187797
0.393268 -0.0164459 -0.035414
0.775795 0.00820726 -0.0246755
0.752987 -0.250613 0.0114802
0.720852 -0.0407076 0.00114454
0.759349 -0.00762966 0.000158269
0.76761 -0.00161057 3.32418e-05
0.769399 -0.000356619 7.3048e-06
0.769827 -9.28932e-05 -3.31502e-06
0.770279 -0.000180545 -6.54721e-05
0.777816 -0.00199458 -0.00188804
0.475055 -0.044076 -0.0435859
0.929412 0.0167453 -0.0255788
0.893207 -0.241895 0.016009
0.744439 -0.0466156 0.00192731
0.761603 -0.00898926 0.000172736
0.767971 -0.00191059 2.91335e-05
0.769476 -0.000423841 6.16019e-06
0.769839 -0.000108006 -3.75523e-06
0.770198 -0.000176822 -6.70879e-05
0.777918 -0.00156632 -0.00189453
0.522057 -0.0601403 -0.0495633
0.947075 0.0151977 -0.0219233
0.915492 -0.223485 0.0113247
0.757757 -0.0497945 0.00157654
0.763706 -0.0100296 0.000139286
0.768372 -0.00215572 2.27848e-05
0.769561 -0.000479477 4.78724e-06
0.769852 -0.000119238 -4.20961e-06
0.770135 -0.000158277 -6.81044e-05
0.777996 -0.00117865 -0.00189876
0.560762 -0.0646371 -0.0544718
0.944377 0.0112807 -0.0189407
0.915713 -0.201979 0.00641165
0.767763 -0.0509004 0.00102503
0.765847 -0.010746 9.71667e-05
0.768811 -0.00233991 1.58876e-05
0.769656 -0.000522052 3.28544e-06
0.769867 -0.000126443 -4.6609e-06
0.770091 -0.000128877 -6.87527e-05
0.778054 -0.000821943 -0.00190147
0.592203 -0.0596488 -0.0585157
0.939762 0.00775526 -0.0172323
0.913312 -0.179773 0.00342308
0.776504 -0.050361 0.000601335
0.768034 -0.0111368 5.63876e-05
0.769277 -0.00245892 8.90421e-06
0.769757 -0.000550484 1.71442e-06
0.769886 -0.000129642 -5.09697e-06
0.770064 -9.19222e-05 -6.916e-05
0.778092 -0.000486906 -0.00190307
0.616379 -0.0472012 -0.0618108
0.935491 0.00559798 -0.0163558
0.91079 -0.158192 0.00154649
0.78415 -0.0485367 0.000306831
0.770185 -0.0112104 2.09151e-05