# vtk DataFile Version 2.0
TestTestTest
ASCII

DATASET STRUCTURED_GRID
DIMENSIONS 11 21 11
POINTS 2541 float
0 0 0
0.5 0 0
1 0 0
1.5 0 0
2 0 0
2.5 0 0
3 0 0
3.5 0 0
4 0 0
4.5 0 0
5 0 0
0 0.05 0
0.5 0.05 0
1 0.05 0
1.5 0.05 0
2 0.05 0
2.5 0.05 0
3 0.05 0
3.5 0.05 0
4 0.05 0
4.5 0.05 0
5 0.05 0
0 0.1 0
0.5 0.1 0
1 0.1 0
1.5 0.1 0
2 0.1 0
2.5 0.1 0
3 0.1 0
3.5 0.1 0
4 0.1 0
4.5 0.1 0
5 0.1 0
0 0.15 0
0.5 0.15 0
1 0.15 0
1.5 0.15 0
2 0.15 0
2.5 0.15 0
3 0.15 0
3.5 0.15 0
4 0.15 0
4.5 0.15 0
5 0.15 0
0 0.2 0
0.5 0.2 0
1 0.2 0
1.5 0.2 0
2 0.2 0
2.5 0.2 0
3 0.2 0
3.5 0.2 0
4 0.2 0
4.5 0.2 0
5 0.2 0
0 0.25 0
0.5 0.25 0
1 0.25 0
1.5 0.25 0
2 0.25 0
2.5 0.25 0
3 0.25 0
3.5 0.25 0
4 0.25 0
4.5 0.25 0
5 0.25 0
0 0.3 0
0.5 0.3 0
1 0.3 0
1.5 0.3 0
2 0.3 0
2.5 0.3 0
3 0.3 0
3.5 0.3 0
4 0.3 0
4.5 0.3 0
5 0.3 0
0 0.35 0
0.5 0.35 0
1 0.35 0
1.5 0.35 0
2 0.35 0
2.5 0.35 0
3 0.35 0
3.5 0.35 0
4 0.35 0
4.5 0.35 0
5 0.35 0
0 0.4 0
0.5 0.4 0
1 0.4 0
1.5 0.4 0
2 0.4 0
2.5 0.4 0
3 0.4 0
3.5 0.4 0
4 0.4 0
4.5 0.4 0
5 0.4 0
0 0.45 0
0.5 0.45 0
1 0.45 0
1.5 0.45 0
2 0.45 0
2.5 0.45 0
3 0.45 0
3.5 0.45 0
4 0.45 0
4.5 0.45 0
5 0.45 0
0 0.5 0
0.5 0.5 0
1 0.5 0
1.5 0.5 0
2 0.5 0
2.5 0.5 0
3 0.5 0
3.5 0.5 0
4 0.5 0
4.5 0.5 0
5 0.5 0
0 0.55 0
0.5 0.55 0
1 0.55 0
1.5 0.55 0
2 0.55 0
2.5 0.55 0
3 0.55 0
3.5 0.55 0
4 0.55 0
4.5 0.55 0
5 0.55 0
0 0.6 0
0.5 0.6 0
1 0.6 0
1.5 0.6 0
2 0.6 0
2.5 0.6 0
3 0.6 0
3.5 0.6 0
4 0.6 0
4.5 0.6 0
5 0.6 0
0 0.65 0
0.5 0.65 0
1 0.65 0
1.5 0.65 0
2 0.65 0
2.5 0.65 0
3 0.65 0
3.5 0.65 0
4 0.65 0
4.5 0.65 0
5 0.65 0
0 0.7 0
0.5 0.7 0
1 0.7 0
1.5 0.7 0
2 0.7 0
2.5 0.7 0
3 0.7 0
3.5 0.7 0
4 0.7 0
4.5 0.7 0
5 0.7 0
0 0.75 0
0.5 0.75 0
1 0.75 0
1.5 0.75 0
2 0.75 0
2.5 0.75 0
3 0.75 0
3.5 0.75 0
4 0.75 0
4.5 0.75 0
5 0.75 0
0 0.8 0
0.5 0.8 0
1 0.8 0
1.5 0.8 0
2 0.8 0
2.5 0.8 0
3 0.8 0
3.5 0.8 0
4 0.8 0
4.5 0.8 0
5 0.8 0
0 0.85 0
0.5 0.85 0
1 0.85 0
1.5 0.85 0
2 0.85 0
2.5 0.85 0
3 0.85 0
3.5 0.85 0
4 0.85 0
4.5 0.85 0
5 0.85 0
0 0.9 0
0.5 0.9 0
1 0.9 0
1.5 0.9 0
2 0.9 0
2.5 0.9 0
3 0.9 0
3.5 0.9 0
4 0.9 0
4.5 0.9 0
5 0.9 0
0 0.95 0
0.5 0.95 0
1 0.95 0
1.5 0.95 0
2 0.95 0
2.5 0.95 0
3 0.95 0
3.5 0.95 0
4 0.95 0
4.5 0.95 0
5 0.95 0
0 1 0
0.5 1 0
1 1 0
1.5 1 0
2 1 0
2.5 1 0
3 1 0
3.5 1 0
4 1 0
4.5 1 0
5 1 0
0 0 0.1
0.5 0 0.1
1 0 0.1
1.5 0 0.1
2 0 0.1
2.5 0 0.1
3 0 0.1
3.5 0 0.1
4 0 0.1
4.5 0 0.1
5 0 0.1
0 0.05 0.1
0.5 0.05 0.1
1 0.05 0.1
1.5 0.05 0.1
2 0.05 0.1
2.5 0.05 0.1
3 0.05 0.1
3.5 0.05 0.1
4 0.05 0.1
4.5 0.05 0.1
5 0.05 0.1
0 0.1 0.1
0.5 0.1 0.1
1 0.1 0.1
1.5 0.1 0.1
2 0.1 0.1
2.5 0.1 0.1
3 0.1 0.1
3.5 0.1 0.1
4 0.1 0.1
4.5 0.1 0.1
5 0.1 0.1
0 0.15 0.1
0.5 0.15 0.1
1 0.15 0.1
1.5 0.15 0.1
2 0.15 0.1
2.5 0.15 0.1
3 0.15 0.1
3.5 0.15 0.1
4 0.15 0.1
4.5 0.15 0.1
5 0.15 0.1
0 0.2 0.1
0.5 0.2 0.1
1 0.2 0.1
1.5 0.2 0.1
2 0.2 0.1
2.5 0.2 0.1
3 0.2 0.1
3.5 0.2 0.1
4 0.2 0.1
4.5 0.2 0.1
5 0.2 0.1
0 0.25 0.1
0.5 0.25 0.1
1 0.25 0.1
1.5 0.25 0.1
2 0.25 0.1
2.5 0.25 0.1
3 0.25 0.1
3.5 0.25 0.1
4 0.25 0.1
4.5 0.25 0.1
5 0.25 0.1
0 0.3 0.1
0.5 0.3 0.1
1 0.3 0.1
1.5 0.3 0.1
2 0.3 0.1
2.5 0.3 0.1
3 0.3 0.1
3.5 0.3 0.1
4 0.3 0.1
4.5 0.3 0.1
5 0.3 0.1
0 0.35 0.1
0.5 0.35 0.1
1 0.35 0.1
1.5 0.35 0.1
2 0.35 0.1
2.5 0.35 0.1
3 0.35 0.1
3.5 0.35 0.1
4 0.35 0.1
4.5 0.35 0.1
5 0.35 0.1
0 0.4 0.1
0.5 0.4 0.1
1 0.4 0.1
1.5 0.4 0.1
2 0.4 0.1
2.5 0.4 0.1
3 0.4 0.1
3.5 0.4 0.1
4 0.4 0.1
4.5 0.4 0.1
5 0.4 0.1
0 0.45 0.1
0.5 0.45 0.1
1 0.45 0.1
1.5 0.45 0.1
2 0.45 0.1
2.5 0.45 0.1
3 0.45 0.1
3.5 0.45 0.1
4 0.45 0.1
4.5 0.45 0.1
5 0.45 0.1
0 0.5 0.1
0.5 0.5 0.1
1 0.5 0.1
1.5 0.5 0.1
2 0.5 0.1
2.5 0.5 0.1
3 0.5 0.1
3.5 0.5 0.1
4 0.5 0.1
4.5 0.5 0.1
5 0.5 0.1
0 0.55 0.1
0.5 0.55 0.1
1 0.55 0.1
1.5 0.55 0.1
2 0.55 0.1
2.5 0.55 0.1
3 0.55 0.1
3.5 0.55 0.1
4 0.55 0.1
4.5 0.55 0.1
5 0.55 0.1
0 0.6 0.1
0.5 0.6 0.1
1 0.6 0.1
1.5 0.6 0.1
2 0.6 0.1
2.5 0.6 0.1
3 0.6 0.1
3.5 0.6 0.1
4 0.6 0.1
4.5 0.6 0.1
5 0.6 0.1
0 0.65 0.1
0.5 0.65 0.1
1 0.65 0.1
1.5 0.65 0.1
2 0.65 0.1
2.5 0.65 0.1
3 0.65 0.1
3.5 0.65 0.1
4 0.65 0.1
4.5 0.65 0.1
5 0.65 0.1
0 0.7 0.1
0.5 0.7 0.1
1 0.7 0.1
1.5 0.7 0.1
2 0.7 0.1
2.5 0.7 0.1
3 0.7 0.1
3.5 0.7 0.1
4 0.7 0.1
4.5 0.7 0.1
5 0.7 0.1
0 0.75 0.1
0.5 0.75 0.1
1 0.75 0.1
1.5 0.75 0.1
2 0.75 0.1
2.5 0.75 0.1
3 0.75 0.1
3.5 0.75 0.1
4 0.75 0.1
4.5 0.75 0.1
5 0.75 0.1
0 0.8 0.1
0.5 0.8 0.1
1 0.8 0.1
1.5 0.8 0.1
2 0.8 0.1
2.5 0.8 0.1
3 0.8 0.1
3.5 0.8 0.1
4 0.8 0.1
4.5 0.8 0.1
5 0.8 0.1
0 0.85 0.1
0.5 0.85 0.1
1 0.85 0.1
1.5 0.85 0.1
2 0.85 0.1
2.5 0.85 0.1
3 0.85 0.1
3.5 0.85 0.1
4 0.85 0.1
4.5 0.85 0.1
5 0.85 0.1
0 0.9 0.1
0.5 0.9 0.1
1 0.9 0.1
1.5 0.9 0.1
2 0.9 0.1
2.5 0.9 0.1
3 0.9 0.1
3.5 0.9 0.1
4 0.9 0.1
4.5 0.9 0.1
5 0.9 0.1
0 0.95 0.1
0.5 0.95 0.1
1 0.95 0.1
1.5 0.95 0.1
2 0.95 0.1
2.5 0.95 0.1
3 0.95 0.1
3.5 0.95 0.1
4 0.95 0.1
4.5 0.95 0.1
5 0.95 0.1
0 1 0.1
0.5 1 0.1
1 1 0.1
1.5 1 0.1
2 1 0.1
2.5 1 0.1
3 1 0.1
3.5 1 0.1
4 1 0.1
4.5 1 0.1
5 1 0.1
0 0 0.2
0.5 0 0.2
1 0 0.2
1.5 0 0.2
2 0 0.2
2.5 0 0.2
3 0 0.2
3.5 0 0.2
4 0 0.2
4.5 0 0.2
5 0 0.2
0 0.05 0.2
0.5 0.05 0.2
1 0.05 0.2
1.5 0.05 0.2
2 0.05 0.2
2.5 0.05 0.2
3 0.05 0.2
3.5 0.05 0.2
4 0.05 0.2
4.5 0.05 0.2
5 0.05 0.2
0 0.1 0.2
0.5 0.1 0.2
1 0.1 0.2
1.5 0.1 0.2
2 0.1 0.2
2.5 0.1 0.2
3 0.1 0.2
3.5 0.1 0.2
4 0.1 0.2
4.5 0.1 0.2
5 0.1 0.2
0 0.15 0.2
0.5 0.15 0.2
1 0.15 0.2
1.5 0.15 0.2
2 0.15 0.2
2.5 0.15 0.2
3 0.15 0.2
3.5 0.15 0.2
4 0.15 0.2
4.5 0.15 0.2
5 0.15 0.2
0 0.2 0.2
0.5 0.2 0.2
1 0.2 0.2
1.5 0.2 0.2
2 0.2 0.2
2.5 0.2 0.2
3 0.2 0.2
3.5 0.2 0.2
4 0.2 0.2
4.5 0.2 0.2
5 0.2 0.2
0 0.25 0.2
0.5 0.25 0.2
1 0.25 0.2
1.5 0.25 0.2
2 0.25 0.2
2.5 0.25 0.2
3 0.25 0.2
3.5 0.25 0.2
4 0.25 0.2
4.5 0.25 0.2
5 0.25 0.2
0 0.3 0.2
0.5 0.3 0.2
1 0.3 0.2
1.5 0.3 0.2
2 0.3 0.2
2.5 0.3 0.2
3 0.3 0.2
3.5 0.3 0.2
4 0.3 0.2
4.5 0.3 0.2
5 0.3 0.2
0 0.35 0.2
0.5 0.35 0.2
1 0.35 0.2
1.5 0.35 0.2
2 0.35 0.2
2.5 0.35 0.2
3 0.35 0.2
3.5 0.35 0.2
4 0.35 0.2
4.5 0.35 0.2
5 0.35 0.2
0 0.4 0.2
0.5 0.4 0.2
1 0.4 0.2
1.5 0.4 0.2
2 0.4 0.2
2.5 0.4 0.2
3 0.4 0.2
3.5 0.4 0.2
4 0.4 0.2
4.5 0.4 0.2
5 0.4 0.2
0 0.45 0.2
0.5 0.45 0.2
1 0.45 0.2
1.5 0.45 0.2
2 0.45 0.2
2.5 0.45 0.2
3 0.45 0.2
3.5 0.45 0.2
4 0.45 0.2
4.5 0.45 0.2
5 0.45 0.2
0 0.5 0.2
0.5 0.5 0.2
1 0.5 0.2
1.5 0.5 0.2
2 0.5 0.2
2.5 0.5 0.2
3 0.5 0.2
3.5 0.5 0.2
4 0.5 0.2
4.5 0.5 0.2
5 0.5 0.2
0 0.55 0.2
0.5 0.55 0.2
1 0.55 0.2
1.5 0.55 0.2
2 0.55 0.2
2.5 0.55 0.2
3 0.55 0.2
3.5 0.55 0.2
4 0.55 0.2
4.5 0.55 0.2
5 0.55 0.2
0 0.6 0.2
0.5 0.6 0.2
1 0.6 0.2
1.5 0.6 0.2
2 0.6 0.2
2.5 0.6 0.2
3 0.6 0.2
3.5 0.6 0.2
4 0.6 0.2
4.5 0.6 0.2
5 0.6 0.2
0 0.65 0.2
0.5 0.65 0.2
1 0.65 0.2
1.5 0.65 0.2
2 0.65 0.2
2.5 0.65 0.2
3 0.65 0.2
3.5 0.65 0.2
4 0.65 0.2
4.5 0.65 0.2
5 0.65 0.2
0 0.7 0.2
0.5 0.7 0.2
1 0.7 0.2
1.5 0.7 0.2
2 0.7 0.2
2.5 0.7 0.2
3 0.7 0.2
3.5 0.7 0.2
4 0.7 0.2
4.5 0.7 0.2
5 0.7 0.2
0 0.75 0.2
0.5 0.75 0.2
1 0.75 0.2
1.5 0.75 0.2
2 0.75 0.2
2.5 0.75 0.2
3 0.75 0.2
3.5 0.75 0.2
4 0.75 0.2
4.5 0.75 0.2
5 0.75 0.2
0 0.8 0.2
0.5 0.8 0.2
1 0.8 0.2
1.5 0.8 0.2
2 0.8 0.2
2.5 0.8 0.2
3 0.8 0.2
3.5 0.8 0.2
4 0.8 0.2
4.5 0.8 0.2
5 0.8 0.2
0 0.85 0.2
0.5 0.85 0.2
1 0.85 0.2
1.5 0.85 0.2
2 0.85 0.2
2.5 0.85 0.2
3 0.85 0.2
3.5 0.85 0.2
4 0.85 0.2
4.5 0.85 0.2
5 0.85 0.2
0 0.9 0.2
0.5 0.9 0.2
1 0.9 0.2
1.5 0.9 0.2
2 0.9 0.2
2.5 0.9 0.2
3 0.9 0.2
3.5 0.9 0.2
4 0.9 0.2
4.5 0.9 0.2
5 0.9 0.2
0 0.95 0.2
0.5 0.95 0.2
1 0.95 0.2
1.5 0.95 0.2
2 0.95 0.2
2.5 0.95 0.2
3 0.95 0.2
3.5 0.95 0.2
4 0.95 0.2
4.5 0.95 0.2
5 0.95 0.2
0 1 0.2
0.5 1 0.2
1 1 0.2
1.5 1 0.2
2 1 0.2
2.5 1 0.2
3 1 0.2
3.5 1 0.2
4 1 0.2
4.5 1 0.2
5 1 0.2
0 0 0.3
0.5 0 0.3
1 0 0.3
1.5 0 0.3
2 0 0.3
2.5 0 0.3
3 0 0.3
3.5 0 0.3
4 0 0.3
4.5 0 0.3
5 0 0.3
0 0.05 0.3
0.5 0.05 0.3
1 0.05 0.3
1.5 0.05 0.3
2 0.05 0.3
2.5 0.05 0.3
3 0.05 0.3
3.5 0.05 0.3
4 0.05 0.3
4.5 0.05 0.3
5 0.05 0.3
0 0.1 0.3
0.5 0.1 0.3
1 0.1 0.3
1.5 0.1 0.3
2 0.1 0.3
2.5 0.1 0.3
3 0.1 0.3
3.5 0.1 0.3
4 0.1 0.3
4.5 0.1 0.3
5 0.1 0.3
0 0.15 0.3
0.5 0.15 0.3
1 0.15 0.3
1.5 0.15 0.3
2 0.15 0.3
2.5 0.15 0.3
3 0.15 0.3
3.5 0.15 0.3
4 0.15 0.3
4.5 0.15 0.3
5 0.15 0.3
0 0.2 0.3
0.5 0.2 0.3
1 0.2 0.3
1.5 0.2 0.3
2 0.2 0.3
2.5 0.2 0.3
3 0.2 0.3
3.5 0.2 0.3
4 0.2 0.3
4.5 0.2 0.3
5 0.2 0.3
0 0.25 0.3
0.5 0.25 0.3
1 0.25 0.3
1.5 0.25 0.3
2 0.25 0.3
2.5 0.25 0.3
3 0.25 0.3
3.5 0.25 0.3
4 0.25 0.3
4.5 0.25 0.3
5 0.25 0.3
0 0.3 0.3
0.5 0.3 0.3
1 0.3 0.3
1.5 0.3 0.3
2 0.3 0.3
2.5 0.3 0.3
3 0.3 0.3
3.5 0.3 0.3
4 0.3 0.3
4.5 0.3 0.3
5 0.3 0.3
0 0.35 0.3
0.5 0.35 0.3
1 0.35 0.3
1.5 0.35 0.3
2 0.35 0.3
2.5 0.35 0.3
3 0.35 0.3
3.5 0.35 0.3
4 0.35 0.3
4.5 0.35 0.3
5 0.35 0.3
0 0.4 0.3
0.5 0.4 0.3
1 0.4 0.3
1.5 0.4 0.3
2 0.4 0.3
2.5 0.4 0.3
3 0.4 0.3
3.5 0.4 0.3
4 0.4 0.3
4.5 0.4 0.3
5 0.4 0.3
0 0.45 0.3
0.5 0.45 0.3
1 0.45 0.3
1.5 0.45 0.3
2 0.45 0.3
2.5 0.45 0.3
3 0.45 0.3
3.5 0.45 0.3
4 0.45 0.3
4.5 0.45 0.3
5 0.45 0.3
0 0.5 0.3
0.5 0.5 0.3
1 0.5 0.3
1.5 0.5 0.3
2 0.5 0.3
2.5 0.5 0.3
3 0.5 0.3
3.5 0.5 0.3
4 0.5 0.3
4.5 0.5 0.3
5 0.5 0.3
0 0.55 0.3
0.5 0.55 0.3
1 0.55 0.3
1.5 0.55 0.3
2 0.55 0.3
2.5 0.55 0.3
3 0.55 0.3
3.5 0.55 0.3
4 0.55 0.3
4.5 0.55 0.3
5 0.55 0.3
0 0.6 0.3
0.5 0.6 0.3
1 0.6 0.3
1.5 0.6 0.3
2 0.6 0.3
2.5 0.6 0.3
3 0.6 0.3
3.5 0.6 0.3
4 0.6 0.3
4.5 0.6 0.3
5 0.6 0.3
0 0.65 0.3
0.5 0.65 0.3
1 0.65 0.3
1.5 0.65 0.3
2 0.65 0.3
2.5 0.65 0.3
3 0.65 0.3
3.5 0.65 0.3
4 0.65 0.3
4.5 0.65 0.3
5 0.65 0.3
0 0.7 0.3
0.5 0.7 0.3
1 0.7 0.3
1.5 0.7 0.3
2 0.7 0.3
2.5 0.7 0.3
3 0.7 0.3
3.5 0.7 0.3
4 0.7 0.3
4.5 0.7 0.3
5 0.7 0.3
0 0.75 0.3
0.5 0.75 0.3
1 0.75 0.3
1.5 0.75 0.3
2 0.75 0.3
2.5 0.75 0.3
3 0.75 0.3
3.5 0.75 0.3
4 0.75 0.3
4.5 0.75 0.3
5 0.75 0.3
0 0.8 0.3
0.5 0.8 0.3
1 0.8 0.3
1.5 0.8 0.3
2 0.8 0.3
2.5 0.8 0.3
3 0.8 0.3
3.5 0.8 0.3
4 0.8 0.3
4.5 0.8 0.3
5 0.8 0.3
0 0.85 0.3
0.5 0.85 0.3
1 0.85 0.3
1.5 0.85 0.3
2 0.85 0.3
2.5 0.85 0.3
3 0.85 0.3
3.5 0.85 0.3
4 0.85 0.3
4.5 0.85 0.3
5 0.85 0.3
0 0.9 0.3
0.5 0.9 0.3
1 0.9 0.3
1.5 0.9 0.3
2 0.9 0.3
2.5 0.9 0.3
3 0.9 0.3
3.5 0.9 0.3
4 0.9 0.3
4.5 0.9 0.3
5 0.9 0.3
0 0.95 0.3
0.5 0.95 0.3
1 0.95 0.3
1.5 0.95 0.3
2 0.95 0.3
2.5 0.95 0.3
3 0.95 0.3
3.5 0.95 0.3
4 0.95 0.3
4.5 0.95 0.3
5 0.95 0.3
0 1 0.3
0.5 1 0.3
1 1 0.3
1.5 1 0.3
2 1 0.3
2.5 1 0.3
3 1 0.3
3.5 1 0.3
4 1 0.3
4.5 1 0.3
5 1 0.3
0 0 0.4
[...]
CELL_DATA 2000
SCALARS pressure float 1
LOOKUP_TABLE default
0
0
0.855404
1.03107
0.85549
0.691244
0.528337
0.365761
0.202413
0.0244617
0
0
0.857095
1.02297
0.854881
0.691135
0.528312
0.365758
0.20247
0.0274194
0
0
0.81835
1.01858
0.85414
0.691009
0.528283
0.365758
0.202582
0.0299926
0
0
0.816407
1.00813
0.853344
0.690876
0.528251
0.36576
0.202724
0.0321241
2.02506
2.20221
0.837179
0.999722
0.85256
0.690741
0.528217
0.365762
0.202876
0.0338589
2.01867
2.17607
0.888418
0.994969
0.851894
0.69061
0.528182
0.365764
0.203021
0.0352401
2.00699
2.14182
0.946858
0.993489
0.851405
0.690489
0.528146
0.365765
0.203149
0.0363034
1.99112
2.10586
1.00455
0.994371
0.851112
0.690382
0.52811
0.365763
0.203251
0.0370768
1.97423
2.07132
1.05774
0.996932
0.85101
0.69029
0.528074
0.365759
0.203321
0.0375808
1.95859
2.03971
1.10527
1.0006
0.851071
0.690212
0.528039
0.36575
0.203355
0.0378291
1.94524
2.0116
1.14687
1.00491
0.851262
0.690148
0.528005
0.365738
0.203351
0.0378284
1.93492
1.9871
1.18265
1.00949
0.851541
0.690096
0.527972
0.365722
0.20331
0.0375786
1.92833
1.9661
1.21295
1.01402
0.85187
0.690051
0.52794
0.365703
0.203233
0.0370732
1.92569
1.94841
1.23814
1.01828
0.852208
0.690011
0.527908
0.365682
0.203124
0.0362985
1.9267
1.93388
1.25865
1.02208
0.852519
0.689971
0.527878
0.365659
0.202989
0.0352339
1.93102
1.92238
1.27483
1.02525
0.85277
0.689928
0.527849
0.365636
0.202838
0.0338514
1.93804
1.91384
1.28702
1.02771
0.852936
0.68988
0.527821
0.365614
0.202681
0.0321154
1.94588
1.90814
1.29551
1.02936
0.852995
0.689823
0.527794
0.365595
0.202534
0.029983
1.95181
1.90527
1.30053
1.03015
0.852934
0.689757
0.527769
0.36558
0.202418
0.0274089
1.95514
1.90492
1.30208
1.03007
0.852756
0.689686
0.527747
0.36557
0.202358
0.0244505
0
0
0.856679
1.0267
0.855054
0.691152
0.528317
0.365773
0.202647
0.029424
0
0
0.857628
1.01977
0.854364
0.691028
0.528289
0.36577
0.202716
0.0329545
0
0
0.813724
1.01594
0.853671
0.690905
0.52826
0.36577
0.202841
0.0356371
0
0
0.84101
1.00758
0.852908
0.690779
0.52823
0.365773
0.20299
0.0378253
2.00816
2.28021
0.750053
0.996564
0.852163
0.690655
0.528199
0.365776
0.203147
0.0395941
2.00077
2.24446
0.819281
0.990205
0.851541
0.690537
0.528166
0.365779
0.203295
0.0409962
1.98924
2.18461
0.903047
0.989986
0.851121
0.690432
0.528134
0.365781
0.203425
0.0420724
1.97481
2.13375
0.977252
0.992085
0.850908
0.69034
0.528102
0.365781
0.203528
0.0428536
1.95825
2.09064
1.04091
0.995511
0.850885
0.690265
0.52807
0.365777
0.203599
0.0433622
1.94116
2.05409
1.09503
0.999796
0.851021
0.690204
0.528039
0.365769
0.203633
0.0436126
1.9265
2.02289
1.14082
1.00455
0.851277
0.690156
0.528009
0.365758
0.20363
0.0436119
1.91553
1.99626
1.17933
1.00944
0.851614
0.690118
0.527979
0.365743
0.203588
0.0433602
1.90877
1.97354
1.21138
1.01421
0.851992
0.690088
0.527951
0.365725
0.203511
0.0428503
1.90645
1.95427
1.23769
1.01863
0.852372
0.69006
0.527923
0.365704
0.203401
0.0420678
1.90847
1.93813
1.25886
1.02254
0.852717
0.690031
0.527895
0.365682
0.203265
0.0409904
1.91396
1.92487
1.2754
1.0258
0.852996
0.689997
0.527868
0.365659
0.203111
0.0395872
1.92033
1.91454
1.28773
1.0283
0.853183
0.689955
0.527842
0.365637
0.202949
0.0378173
1.92643
1.90732
1.29619
1.02998
0.853257
0.689904
0.527817
0.365618
0.202795
0.0356282
1.93203
1.90331
1.30104
1.03077
0.853201
0.68984
0.527792
0.365603
0.202666
0.0329447
1.93643
1.90288
1.30243
1.0306
0.852989
0.689758
0.527768
0.365592
0.202593
0.0294134
0
0
0.858909
1.02376
0.85475
0.691081
0.528302
0.365796
0.202967
0.0329348
0
0
0.857239
1.01796
0.854077
0.690957
0.528274
0.365793
0.203041
0.0365514
0
0
0.821328
1.01519
0.853434
0.690838
0.528246
0.365794
0.203171
0.0392958
0
0
0.849374
1.00863
0.852739
0.690719
0.528217
0.365798
0.203326
0.0415285
1.99242
2.31431
0.701876
0.996863
0.852026
0.690603
0.528187
0.365802
0.203486
0.0433285
1.98387
2.31691
0.737784
0.987437
0.851385
0.690493
0.528157
0.365806
0.203638
0.0447521
1.97407
2.24318
0.84992
0.985739
0.850934
0.690396
0.528127
0.365808
0.20377
0.0458428
1.96722
2.17669
0.94329
0.98857
0.850721
0.690314
0.528097
0.365808
0.203875
0.0466335
1.96152
2.12304
1.01874
0.992839
0.850726
0.690247
0.528069
0.365805
0.203947
0.0471479
1.95462
2.07924
1.08076
0.997816
0.8509
0.690196
0.52804
0.365799
0.203982
0.047401
1.94604
2.04324
1.13193
1.00312
0.851198
0.690158
0.528013
0.365788
0.203979
0.0474004
1.93712
2.01322
1.17411
1.00846
0.851577
0.69013
0.527986
0.365774
0.203937
0.047146
1.93013
1.98784
1.20868
1.01357
0.851995
0.690109
0.52796
0.365756
0.203859
0.0466305
1.92524
1.96629
1.23668
1.01827
0.85241
0.69009
0.527934
0.365736
0.203747
0.0458385
1.92053
1.94809
1.25894
1.02238
0.852787
0.690068
0.527909
0.365714
0.203609
0.0447467
1.91511
1.93296
1.27608
1.02581
0.853095
0.690041
0.527884
0.365691
0.203452
0.043322
1.91003
1.92055
1.28858
1.02845
0.853309
0.690005
0.527859
0.365669
0.203287
0.041521
1.90824
1.9111
1.29696
1.03023
0.853403
0.689958
0.527835
0.36565
0.203127
0.0392873
1.91217
1.90539
1.30168
1.03106
0.853357
0.689896
0.52781
0.365634
0.202993
0.0365421
1.9182
1.9041
1.30294
1.0309
0.853145
0.689813
0.527786
0.365623
0.202916
0.0329247
0
0
0.855895
1.02259
0.854578
0.691036
0.528293
0.365819
0.203239
0.0351164
0
0
0.853092
1.01709
0.853921
0.690913
0.528265
0.365817
0.203315
0.0387517
0
0
0.815102
1.01478
0.853309
0.690798
0.528238
0.365818
0.203447
0.0415185
0
0
0.835583
1.00884
0.852659
0.690683
0.52821
0.365822
0.203605
0.043772
1.98504
2.35207
0.68375
0.997353
0.851995
0.690574
0.528181
0.365827
0.203767
0.0455892
1.97616
2.35944
0.699824
0.98753
0.851389
0.690471
0.528152
0.365831
0.203921
0.0470261
1.96843
2.28393
0.811552
0.984771
0.850919
0.690379
0.528124
0.365834
0.204055
0.0481267
1.96798
2.2105
0.916009
0.986952
0.850656
0.6903
0.528096
0.365835
0.204161
0.0489244
1.97461
2.15058
1.00042
0.99107
0.850625
0.690237
0.528068
0.365832
0.204234
0.049443
1.98324
2.10132
1.06859
0.996132
0.850785
0.690189
0.528042
0.365826
0.204269
0.0496982
1.98781
2.05988
1.12416
1.00162
0.851082
0.690155
0.528016
0.365816
0.204266
0.0496977
1.98599
2.02525
1.16962
1.00718
0.851471
0.690132
0.527991
0.365802
0.204224
0.0494412
1.97879
1.99719
1.20662
1.01253
0.851905
0.690115
0.527966
0.365785
0.204145
0.0489214
1.9663
1.97482
1.23624
1.01747
0.852344
0.6901
0.527942
0.365765
0.204033
0.0481226
1.94779
1.95643
1.2593
1.02186
0.852757
0.690085
0.527918
0.365743
0.203893
0.0470209
1.92618
1.94044
1.27667
1.02553
0.853105
0.690064
0.527894
0.36572
0.203734
0.0455829
1.90825
1.92664
1.2892
1.02836
0.853351
0.690034
0.52787
0.365698
0.203566
0.0437648
1.89986
1.91572
1.29756
1.03025
0.853468
0.689989
0.527847
0.365679
0.203405
0.0415104
1.90179
1.90869
1.30221
1.03115
0.853434
0.689929
0.527823
0.365663
0.203268
0.0387427
1.90839
1.9067
1.30339
1.031
0.853227
0.689847
0.527798
0.365652
0.203189
0.0351066
0
0
0.852449
1.02212
0.854502
0.691015
0.528289
0.365833
0.203391
0.036156
0
0
0.848772
1.0167
0.853852
0.690893
0.528261
0.365831
0.203467
0.0397961
0
0
0.808822
1.01453
0.853256
0.690779
0.528234
0.365833
0.203601
0.0425703
0
0
0.826787
1.00877
0.852626
0.690667
0.528206
0.365837
0.203759
0.0448315
1.98263
2.37169
0.673313
0.997431
0.851986
0.69056
0.528178
0.365842
0.203923
0.0466558
1.97372
2.37966
0.687578
0.987673
0.851404
0.690462
0.52815
0.365846
0.204078
0.0480987
1.96789
2.30353
0.796158
0.984963
0.850958
0.690374
0.528123
0.36585
0.204213
0.0492039
1.97208
2.22844
0.901
0.987115
0.850705
0.690299
0.528095
0.365851
0.204319
0.050005
1.98566
2.16593
0.988717
0.990914
0.850643
0.690236
0.528069
0.365848
0.204392
0.0505258
2.00334
2.11341
1.06107
0.995509
0.850746
0.690187
0.528043
0.365842
0.204428
0.0507821
2.0178
2.06848
1.12008
1.00067
0.850993
0.690151
0.528018
0.365833
0.204425
0.0507815
2.02211
2.03053
1.16784
1.00614
0.851357
0.690127
0.527993
0.365819
0.204383
0.0505241
2.01474
2.00087
1.20607
1.01164
0.851801
0.690112
0.527969
0.365802
0.204304
0.0500021
1.99581
1.97869
1.23618
1.01685
0.852274
0.690102
0.527946
0.365782
0.204191
0.0491999
1.96709
1.96063
1.25945
1.02147
0.85272
0.690091
0.527923
0.36576
0.20405
0.0480936
1.93608
1.94466
1.27694
1.02531
0.853094
0.690074
0.527899
0.365737
0.20389
0.0466496
1.91094
1.93041
1.28953
1.02825
0.853359
0.690046
0.527876
0.365715
0.203721
0.0448244
1.89778
1.91875
1.29788
1.03021
0.853488
0.690004
0.527853
0.365696
0.203559
0.0425623
1.89786
1.91101
1.3025
1.03115
0.853463
0.689945
0.527829
0.36568
0.203421
0.0397873
1.90461
1.90863
1.30365
1.03102
0.853259
0.689863
0.527804
0.365669
0.203342
0.0361463
0
0
0.852449
1.02212
0.854502
0.691015
0.528289
0.365833
0.203391
0.036156
0
0
0.848772
1.0167
0.853852
0.690893
0.528261
0.365831
0.203467
0.0397961
0
0
0.808822
1.01453
0.853256
0.690779
0.528234
0.365833
0.203601
0.0425703
0
0
0.826787
1.00877
0.852626
0.690667
0.528206
0.365837
0.203759
0.0448315
1.98263
2.37169
0.673313
0.997431
0.851986
0.69056
0.528178
0.365842
0.203923
0.0466558
1.97372
2.37966
0.687578
0.987673
0.851404
0.690462
0.52815
0.365846
0.204078
0.0480987
1.96789
2.30353
0.796158
0.984963
0.850958
0.690374
0.528123
0.36585
0.204213
0.0492039
1.97208
2.22844
0.901
0.987115
0.850705
0.690299
0.528095
0.365851
0.204319
0.050005
1.98566
2.16593
0.988717
0.990914
0.850643
0.690236
0.528069
0.365848
0.204392
0.0505258
2.00334
2.11341
1.06107
0.995509
0.850746
0.690187
0.528043
0.365842
0.204428
0.0507821
2.0178
2.06848
1.12008
1.00067
0.850993
0.690151
0.528018
0.365833
0.204425
0.0507815
2.02211
2.03053
1.16784
1.00614
0.851357
0.690127
0.527993
0.365819
0.204383
0.0505241
2.01474
2.00087
1.20607
1.01164
0.851801
0.690112
0.527969
0.365802
0.204304
0.0500021
1.99581
1.97869
1.23618
1.01685
0.852274
0.690102
0.527946
0.365782
0.204191
0.0491999
1.96709
1.96063
1.25945
1.02147
0.85272
0.690091
0.527923
0.36576
0.20405
0.0480936
1.93608
1.94466
1.27694
1.02531
0.853094
0.690074
0.527899
0.365737
0.20389
0.0466496
1.91094
1.93041
1.28953
1.02825
0.853359
0.690046
0.527876
0.365715
0.203721
0.0448244
1.89778
1.91875
1.29788
1.03021
0.853488
0.690004
0.527853
0.365696
0.203559
0.0425623
1.89786
1.91101
1.3025
1.03115
0.853463
0.689945
0.527829
0.36568
0.203421
0.0397873
1.90461
1.90863
1.30365
1.03102
0.853259
0.689863
0.527804
0.365669
0.203342
0.0361463
0
0
0.855895
1.02259
0.854578
0.691036
0.528293
0.365819
0.203239
0.0351164
0
0
0.853092
1.01709
0.853921
0.690913
0.528265
0.365817
0.203315
0.0387517
0
0
0.815102
1.01478
0.853309
0.690798
0.528238
0.365818
0.203447
0.0415185
0
0
0.835583
1.00884
0.852659
0.690683
0.52821
0.365822
0.203605
0.043772
1.98504
2.35207
0.68375
0.997353
0.851995
0.690574
0.528181
0.365827
0.203767
0.0455892
1.97616
2.35944
0.699824
0.98753
0.851389
0.690471
0.528152
0.365831
0.203921
0.0470261
1.96843
2.28393
0.811552
0.984771
0.850919
0.690379
0.528124
0.365834
0.204055
0.0481267
1.96798
2.2105
0.916009
0.986952
0.850656
0.6903
0.528096
0.365835
0.204161
0.0489244
1.97461
2.15058
1.00042
0.99107
0.850625
0.690237
0.528068
0.365832
0.204234
0.049443
1.98324
2.10132
1.06859
0.996132
0.850785
0.690189
0.528042
0.365826
0.204269
0.0496982
1.98781
2.05988
1.12416
1.00162
0.851082
0.690155
0.528016
0.365816
0.204266
0.0496977
1.98599
2.02525
1.16962
1.00718
0.851471
0.690132
0.527991
0.365802
0.204224
0.0494412
1.97879
1.99719
1.20662
1.01253
0.851905
0.690115
0.527966
0.365785
0.204145
0.0489214
1.9663
1.97482
1.23624
1.01747
0.852344
0.6901
0.527942
0.365765
0.204033
0.0481226
1.94779
1.95643
1.2593
1.02186
0.852757
0.690085
0.527918
0.365743
0.203893
0.0470209
1.92618
1.94044
1.27667
1.02553
0.853105
0.690064
0.527894
0.36572
0.203734
0.0455829
1.90825
1.92664
1.2892
1.02836
0.853351
0.690034
0.52787
0.365698
0.203566
0.0437648
1.89986
1.91572
1.29756
1.03025
0.853468
0.689989
0.527847
0.365679
0.203405
0.0415104
1.90179
1.90869
1.30221
1.03115
0.853434
0.689929
0.527823
0.365663
0.203268
0.0387427
1.90839
1.9067
1.30339
1.031
0.853227
0.689847
0.527798
0.365652
0.203189
0.0351066
0
0
0.858909
1.02376
0.85475
0.691081
0.528302
0.365796
0.202967
0.0329348
0
0
0.857239
1.01796
0.854077
0.690957
0.528274
0.365793
0.203041
0.0365514
0
0
0.821328
1.01519
0.853434
0.690838
0.528246
0.365794
0.203171
0.0392958
0
0
0.849374
1.00863
0.852739
0.690719
0.528217
0.365798
0.203326
0.0415285
1.99242
2.31431
0.701876
0.996863
0.852026
0.690603
0.528187
0.365802
0.203486
0.0433285
1.98387
2.31691
0.737784
0.987437
0.851385
0.690493
0.528157
0.365806
0.203638
0.0447521
1.97407
2.24318
0.84992
0.985739
0.850934
0.690396
0.528127
0.365808
0.20377
0.0458428
1.96722
2.17669
0.94329
0.98857
0.850721
0.690314
0.528097
0.365808
0.203875
0.0466335
1.96152
2.12304
1.01874
0.992839
0.850726
0.690247
0.528069
0.365805
0.203947
0.0471479
1.95462
2.07924
1.08076
0.997816
0.8509
0.690196
0.52804
0.365799
0.203982
0.047401
1.94604
2.04324
1.13193
1.00312
0.851198
0.690158
0.528013
0.365788
0.203979
0.0474004
1.93712
2.01322
1.17411
1.00846
0.851577
0.69013
0.527986
0.365774
0.203937
0.047146
1.93013
1.98784
1.20868
1.01357
0.851995
0.690109
0.52796
0.365756
0.203859
0.0466305
1.92524
1.96629
1.23668
1.01827
0.85241
0.69009
0.527934
0.365736
0.203747
0.0458385
1.92053
1.94809
1.25894
1.02238
0.852787
0.690068
0.527909
0.365714
0.203609
0.0447467
1.91511
1.93296
1.27608
1.02581
0.853095
0.690041
0.527884
0.365691
0.203452
0.043322
1.91003
1.92055
1.28858
1.02845
0.853309
0.690005
0.527859
0.365669
0.203287
0.041521
1.90824
1.9111
1.29696
1.03023
0.853403
0.689958
0.527835
0.36565
0.203127
0.0392873
1.91217
1.90539
1.30168
1.03106
0.853357
0.689896
0.52781
0.365634
0.202993
0.0365421
1.9182
1.9041
1.30294
1.0309
0.853145
0.689813
0.527786
0.365623
0.202916
0.0329247
0
0
0.856679
1.0267
0.855054
0.691152
0.528317
0.365773
0.202647
0.029424
0
0
0.857628
1.01977
0.854364
0.691028
0.528289
0.36577
0.202716
0.0329545
0
0
0.813724
1.01594
0.853671
0.690905
0.52826
0.36577
0.202841
0.0356371
0
0
0.84101
1.00758
0.852908
0.690779
0.52823
0.365773
0.20299
0.0378253
2.00816
2.28021
0.750053
0.996564
0.852163
0.690655
0.528199
0.365776
0.203147
0.0395941
2.00077
2.24446
0.819281
0.990205
0.851541
0.690537
0.528166
0.365779
0.203295
0.0409962
1.98924
2.18461
0.903047
0.989986
0.851121
0.690432
0.528134
0.365781
0.203425
0.0420724
1.97481
2.13375
0.977252
0.992085
0.850908
0.69034
0.528102
0.365781
0.203528
0.0428536
1.95825
2.09064
1.04091
0.995511
0.850885
0.690265
0.52807
0.365777
0.203599
0.0433622
1.94116
2.05409
1.09503
0.999796
0.851021
0.690204
0.528039
0.365769
0.203633
0.0436126
1.9265
2.02289
1.14082
1.00455
0.851277
0.690156
0.528009
0.365758
0.20363
0.0436119
1.91553
1.99626
1.17933
1.00944
0.851614
0.690118
0.527979
0.365743
0.203588
0.0433602
1.90877
1.97354
1.21138
1.01421
0.851992
0.690088
0.527951
0.365725
0.203511
0.0428503
1.90645
1.95427
1.23769
1.01863
0.852372
0.69006
0.527923
0.365704
0.203401
0.0420678
1.90847
1.93813
1.25886
1.02254
0.852717
0.690031
0.527895
0.365682
0.203265
0.0409904
1.91396
1.92487
1.2754
1.0258
0.852996
0.689997
0.527868
0.365659
0.203111
0.0395872
1.92033
1.91454
1.28773
1.0283
0.853183
0.689955
0.527842
0.365637
0.202949
0.0378173
1.92643
1.90732
1.29619
1.02998
0.853257
0.689904
0.527817
0.365618
0.202795
0.0356282
1.93203
1.90331
1.30104
1.03077
0.853201
0.68984
0.527792
0.365603
0.202666
0.0329447
1.93643
1.90288
1.30243
1.0306
0.852989
0.689758
0.527768
0.365592
0.202593
0.0294134
0
0
0.855404
1.03107
0.85549
0.691244
0.528337
0.365761
0.202413
0.0244617
0
0
0.857095
1.02297
0.854881
0.691135
0.528312
0.365758
0.20247
0.0274194
0
0
0.81835
1.01858
0.85414
0.691009
0.528283
0.365758
0.202582
0.0299926
0
0
0.816407
1.00813
0.853344
0.690876
0.528251
0.36576
0.202724
0.0321241
2.02506
2.20221
0.837179
0.999722
0.85256
0.690741
0.528217
0.365762
0.202876
0.0338589
2.01867
2.17607
0.888418
0.994969
0.851894
0.69061
0.528182
0.365764
0.203021
0.0352401
2.00699
2.14182
0.946858
0.993489
0.851405
0.690489
0.528146
0.365765
0.203149
0.0363034
1.99112
2.10586
1.00455
0.994371
0.851112
0.690382
0.52811
0.365763
0.203251
0.0370768
1.97423
2.07132
1.05774
0.996932
0.85101
0.69029
0.528074
0.365759
0.203321
0.0375808
1.95859
2.03971
1.10527
1.0006
0.851071
0.690212
0.528039
0.36575
0.203355
0.0378291
1.94524
2.0116
1.14687
1.00491
0.851262
0.690148
0.528005
0.365738
0.203351
0.0378284
1.93492
1.9871
1.18265
1.00949
0.851541
0.690096
0.527972
0.365722
0.20331
0.0375786
1.92833
1.9661
1.21295
1.01402
0.85187
0.690051
0.52794
0.365703
0.203233
0.0370732
1.92569
1.94841
1.23814
1.01828
0.852208
0.690011
0.527908
0.365682
0.203124
0.0362985
1.9267
1.93388
1.25865
1.02208
0.852519
0.689971
0.527878
0.365659
0.202989
0.0352339
1.93102
1.92238
1.27483
1.02525
0.85277
0.689928
0.527849
0.365636
0.202838
0.0338514
1.93804
1.91384
1.28702
1.02771
0.852936
0.68988
0.527821
0.365614
0.202681
0.0321154
1.94588
1.90814
1.29551
1.02936
0.852995
0.689823
0.527794
0.365595
0.202534
0.029983
1.95181
1.90527
1.30053
1.03015
0.852934
0.689757
0.527769
0.36558
0.202418
0.0274089
1.95514
1.90492
1.30208
1.03007
0.852756
0.689686
0.527747
0.36557
0.202358
0.0244505

VECTORS velocity float
0 0 0
0 0 0
0.855117 -0.0341143 0.000745786
0.71453 -0.00408802 0.00028627
0.762157 -0.000838204 4.07379e-05
0.772108 -0.000181385 8.19469e-06
0.774286 -4.1283e-05 1.70235e-06
0.774796 -1.01973e-05 -9.24663e-07
0.775112 -1.18096e-05 -1.81321e-05
0.782037 -0.000474061 -0.000395227
0 0 0
0 0 0
-0.184136 -0.101935 0.000796393
0.720558 -0.0137061 0.000230875
0.783396 -0.00256738 4.35068e-05
0.793946 -0.00055301 8.89912e-06
0.796228 -0.000125874 1.85607e-06
0.796763 -3.10511e-05 -9.22542e-07
0.797079 -3.46182e-05 -1.9e-05
0.798871 -0.000890235 -0.000433115
0 0 0
0 0 0
0.86935 -0.171776 0.00184893
0.740683 -0.0229493 0.00018693
0.784885 -0.00427837 3.90004e-05
0.794651 -0.000923539 8.47122e-06
0.796815 -0.000210441 1.7913e-06
0.797324 -5.17487e-05 -9.57332e-07
0.797596 -5.26002e-05 -1.95499e-05
0.799268 -0.000761742 -0.000442029
0 0 0
0 0 0
-0.16889 -0.243128 0.000863281
0.737373 -0.0308556 0.000104389
0.786036 -0.00584131 3.51152e-05
0.794899 -0.00126855 7.74844e-06
0.796878 -0.000289665 1.65064e-06
0.797346 -7.08913e-05 -1.00842e-06
0.797578 -6.31991e-05 -1.99181e-05
0.799313 -0.00062769 -0.000446834
0.46838 -0.0200935 -0.0431387
0.959134 0.00149914 -0.0178849
0.883491 -0.267821 0.00891136
0.757669 -0.0376586 0.000427481
0.787711 -0.0072098 3.49465e-05
0.795203 -0.00157784 6.84513e-06
0.796945 -0.000361316 1.45539e-06
0.797359 -8.79196e-05 -1.06922e-06
0.797554 -6.77497e-05 -2.01558e-05
0.799345 -0.000507568 -0.000449601
0.52822 -0.053957 -0.0490473
1.00602 0.000585974 -0.0141485
0.930056 -0.244089 0.00774766
0.772013 -0.0418099 0.000524652
0.789595 -0.00833079 3.24051e-05
0.795566 -0.00184316 5.74533e-06
0.797024 -0.000423552 1.21416e-06
0.797375 -0.000102411 -1.13792e-06
0.797536 -6.74853e-05 -2.0319e-05
0.799371 -0.00039984 -0.000451254
0.571864 -0.0744419 -0.0558552
0.999949 -0.00431351 -0.0113578
0.930032 -0.2179 0.0043567
0.783307 -0.044018 0.000363199
0.791608 -0.00918368 2.53059e-05
0.795974 -0.00205797 4.48115e-06
0.797114 -0.000474816 9.38448e-07
0.797394 -0.000114035 -1.21203e-06
0.797523 -6.34013e-05 -2.04336e-05
0.799392 -0.000302152 -0.000452257
0.609101 -0.0814692 -0.0627481
0.994028 -0.00866735 -0.00987915
0.928277 -0.192781 0.00248369
0.793025 -0.0446578 0.000233429
0.793682 -0.00975941 1.77567e-05
0.796415 -0.00221748 3.14116e-06
0.797214 -0.000513866 6.38972e-07
0.797415 -0.000122553 -1.28948e-06
0.797517 -5.63245e-05 -2.05144e-05
0.799408 -0.000212125 -0.000452863
0.639451 -0.07667 -0.0689786
0.98923 -0.0115593 -0.00914999
0.926634 -0.169455 0.00134549
0.801506 -0.0440478 0.000139897
0.795752 -0.0100604 1.03977e-05
0.796876 -0.00231869 1.77755e-06
0.797319 -0.000539801 3.25549e-07
0.797438 -0.000127818 -1.36828e-06
0.797514 -4.69635e-05 -2.05705e-05
0.799419 -0.000127445 -0.00045321
0.662541 -0.062213 -0.0740487
0.985062 -0.0127493 -0.00881682
0.92514 -0.148014 0.000622904
0.808864 -0.0424386 7.2309e-05
0.797764 -0.0100973 3.67951e-06
0.797344 -0.00236034 4.34718e-07
0.797428 -0.000552075 7.24127e-09
0.797463 -0.000129769 -1.44648e-06
0.797516 -3.59531e-05 -2.06065e-05