# vtk DataFile Version 2.0
TestTestTest
ASCII

DATASET STRUCTURED_GRID
DIMENSIONS 11 21 11
POINTS 2541 float
0 0 0
0.5 0 0
1 0 0
1.5 0 0
2 0 0
2.5 0 0
3 0 0
3.5 0 0
4 0 0
4.5 0 0
5 0 0
0 0.05 0
0.5 0.05 0
1 0.05 0
1.5 0.05 0
2 0.05 0
2.5 0.05 0
3 0.05 0
3.5 0.05 0
4 0.05 0
4.5 0.05 0
5 0.05 0
0 0.1 0
0.5 0.1 0
1 0.1 0
1.5 0.1 0
2 0.1 0
2.5 0.1 0
3 0.1 0
3.5 0.1 0
4 0.1 0
4.5 0.1 0
5 0.1 0
0 0.15 0
0.5 0.15 0
1 0.15 0
1.5 0.15 0
2 0.15 0
2.5 0.15 0
3 0.15 0
3.5 0.15 0
4 0.15 0
4.5 0.15 0
5 0.15 0
0 0.2 0
0.5 0.2 0
1 0.2 0
1.5 0.2 0
2 0.2 0
2.5 0.2 0
3 0.2 0
3.5 0.2 0
4 0.2 0
4.5 0.2 0
5 0.2 0
0 0.25 0
0.5 0.25 0
1 0.25 0
1.5 0.25 0
2 0.25 0
2.5 0.25 0
3 0.25 0
3.5 0.25 0
4 0.25 0
4.5 0.25 0
5 0.25 0
0 0.3 0
0.5 0.3 0
1 0.3 0
1.5 0.3 0
2 0.3 0
2.5 0.3 0
3 0.3 0
3.5 0.3 0
4 0.3 0
4.5 0.3 0
5 0.3 0
0 0.35 0
0.5 0.35 0
1 0.35 0
1.5 0.35 0
2 0.35 0
2.5 0.35 0
3 0.35 0
3.5 0.35 0
4 0.35 0
4.5 0.35 0
5 0.35 0
0 0.4 0
0.5 0.4 0
1 0.4 0
1.5 0.4 0
2 0.4 0
2.5 0.4 0
3 0.4 0
3.5 0.4 0
4 0.4 0
4.5 0.4 0
5 0.4 0
0 0.45 0
0.5 0.45 0
1 0.45 0
1.5 0.45 0
2 0.45 0
2.5 0.45 0
3 0.45 0
3.5 0.45 0
4 0.45 0
4.5 0.45 0
5 0.45 0
0 0.5 0
0.5 0.5 0
1 0.5 0
1.5 0.5 0
2 0.5 0
2.5 0.5 0
3 0.5 0
3.5 0.5 0
4 0.5 0
4.5 0.5 0
5 0.5 0
0 0.55 0
0.5 0.55 0
1 0.55 0
1.5 0.55 0
2 0.55 0
2.5 0.55 0
3 0.55 0
3.5 0.55 0
4 0.55 0
4.5 0.55 0
5 0.55 0
0 0.6 0
0.5 0.6 0
1 0.6 0
1.5 0.6 0
2 0.6 0
2.5 0.6 0
3 0.6 0
3.5 0.6 0
4 0.6 0
4.5 0.6 0
5 0.6 0
0 0.65 0
0.5 0.65 0
1 0.65 0
1.5 0.65 0
2 0.65 0
2.5 0.65 0
3 0.65 0
3.5 0.65 0
4 0.65 0
4.5 0.65 0
5 0.65 0
0 0.7 0
0.5 0.7 0
1 0.7 0
1.5 0.7 0
2 0.7 0
2.5 0.7 0
3 0.7 0
3.5 0.7 0
4 0.7 0
4.5 0.7 0
5 0.7 0
0 0.75 0
0.5 0.75 0
1 0.75 0
1.5 0.75 0
2 0.75 0
2.5 0.75 0
3 0.75 0
3.5 0.75 0
4 0.75 0
4.5 0.75 0
5 0.75 0
0 0.8 0
0.5 0.8 0
1 0.8 0
1.5 0.8 0
2 0.8 0
2.5 0.8 0
3 0.8 0
3.5 0.8 0
4 0.8 0
4.5 0.8 0
5 0.8 0
0 0.85 0
0.5 0.85 0
1 0.85 0
1.5 0.85 0
2 0.85 0
2.5 0.85 0
3 0.85 0
3.5 0.85 0
4 0.85 0
4.5 0.85 0
5 0.85 0
0 0.9 0
0.5 0.9 0
1 0.9 0
1.5 0.9 0
2 0.9 0
2.5 0.9 0
3 0.9 0
3.5 0.9 0
4 0.9 0
4.5 0.9 0
5 0.9 0
0 0.95 0
0.5 0.95 0
1 0.95 0
1.5 0.95 0
2 0.95 0
2.5 0.95 0
3 0.95 0
3.5 0.95 0
4 0.95 0
4.5 0.95 0
5 0.95 0
0 1 0
0.5 1 0
1 1 0
1.5 1 0
2 1 0
2.5 1 0
3 1 0
3.5 1 0
4 1 0
4.5 1 0
5 1 0
0 0 0.1
0.5 0 0.1
1 0 0.1
1.5 0 0.1
2 0 0.1
2.5 0 0.1
3 0 0.1
3.5 0 0.1
4 0 0.1
4.5 0 0.1
5 0 0.1
0 0.05 0.1
0.5 0.05 0.1
1 0.05 0.1
1.5 0.05 0.1
2 0.05 0.1
2.5 0.05 0.1
3 0.05 0.1
3.5 0.05 0.1
4 0.05 0.1
4.5 0.05 0.1
5 0.05 0.1
0 0.1 0.1
0.5 0.1 0.1
1 0.1 0.1
1.5 0.1 0.1
2 0.1 0.1
2.5 0.1 0.1
3 0.1 0.1
3.5 0.1 0.1
4 0.1 0.1
4.5 0.1 0.1
5 0.1 0.1
0 0.15 0.1
0.5 0.15 0.1
1 0.15 0.1
1.5 0.15 0.1
2 0.15 0.1
2.5 0.15 0.1
3 0.15 0.1
3.5 0.15 0.1
4 0.15 0.1
4.5 0.15 0.1
5 0.15 0.1
0 0.2 0.1
0.5 0.2 0.1
1 0.2 0.1
1.5 0.2 0.1
2 0.2 0.1
2.5 0.2 0.1
3 0.2 0.1
3.5 0.2 0.1
4 0.2 0.1
4.5 0.2 0.1
5 0.2 0.1
0 0.25 0.1
0.5 0.25 0.1
1 0.25 0.1
1.5 0.25 0.1
2 0.25 0.1
2.5 0.25 0.1
3 0.25 0.1
3.5 0.25 0.1
4 0.25 0.1
4.5 0.25 0.1
5 0.25 0.1
0 0.3 0.1
0.5 0.3 0.1
1 0.3 0.1
1.5 0.3 0.1
2 0.3 0.1
2.5 0.3 0.1
3 0.3 0.1
3.5 0.3 0.1
4 0.3 0.1
4.5 0.3 0.1
5 0.3 0.1
0 0.35 0.1
0.5 0.35 0.1
1 0.35 0.1
1.5 0.35 0.1
2 0.35 0.1
2.5 0.35 0.1
3 0.35 0.1
3.5 0.35 0.1
4 0.35 0.1
4.5 0.35 0.1
5 0.35 0.1
0 0.4 0.1
0.5 0.4 0.1
1 0.4 0.1
1.5 0.4 0.1
2 0.4 0.1
2.5 0.4 0.1
3 0.4 0.1
3.5 0.4 0.1
4 0.4 0.1
4.5 0.4 0.1
5 0.4 0.1
0 0.45 0.1
0.5 0.45 0.1
1 0.45 0.1
1.5 0.45 0.1
2 0.45 0.1
2.5 0.45 0.1
3 0.45 0.1
3.5 0.45 0.1
4 0.45 0.1
4.5 0.45 0.1
5 0.45 0.1
0 0.5 0.1
0.5 0.5 0.1
1 0.5 0.1
1.5 0.5 0.1
2 0.5 0.1
2.5 0.5 0.1
3 0.5 0.1
3.5 0.5 0.1
4 0.5 0.1
4.5 0.5 0.1
5 0.5 0.1
0 0.55 0.1
0.5 0.55 0.1
1 0.55 0.1
1.5 0.55 0.1
2 0.55 0.1
2.5 0.55 0.1
3 0.55 0.1
3.5 0.55 0.1
4 0.55 0.1
4.5 0.55 0.1
5 0.55 0.1
0 0.6 0.1
0.5 0.6 0.1
1 0.6 0.1
1.5 0.6 0.1
2 0.6 0.1
2.5 0.6 0.1
3 0.6 0.1
3.5 0.6 0.1
4 0.6 0.1
4.5 0.6 0.1
5 0.6 0.1
0 0.65 0.1
0.5 0.65 0.1
1 0.65 0.1
1.5 0.65 0.1
2 0.65 0.1
2.5 0.65 0.1
3 0.65 0.1
3.5 0.65 0.1
4 0.65 0.1
4.5 0.65 0.1
5 0.65 0.1
0 0.7 0.1
0.5 0.7 0.1
1 0.7 0.1
1.5 0.7 0.1
2 0.7 0.1
2.5 0.7 0.1
3 0.7 0.1
3.5 0.7 0.1
4 0.7 0.1
4.5 0.7 0.1
5 0.7 0.1
0 0.75 0.1
0.5 0.75 0.1
1 0.75 0.1
1.5 0.75 0.1
2 0.75 0.1
2.5 0.75 0.1
3 0.75 0.1
3.5 0.75 0.1
4 0.75 0.1
4.5 0.75 0.1
5 0.75 0.1
0 0.8 0.1
0.5 0.8 0.1
1 0.8 0.1
1.5 0.8 0.1
2 0.8 0.1
2.5 0.8 0.1
3 0.8 0.1
3.5 0.8 0.1
4 0.8 0.1
4.5 0.8 0.1
5 0.8 0.1
0 0.85 0.1
0.5 0.85 0.1
1 0.85 0.1
1.5 0.85 0.1
2 0.85 0.1
2.5 0.85 0.1
3 0.85 0.1
3.5 0.85 0.1
4 0.85 0.1
4.5 0.85 0.1
5 0.85 0.1
0 0.9 0.1
0.5 0.9 0.1
1 0.9 0.1
1.5 0.9 0.1
2 0.9 0.1
2.5 0.9 0.1
3 0.9 0.1
3.5 0.9 0.1
4 0.9 0.1
4.5 0.9 0.1
5 0.9 0.1
0 0.95 0.1
0.5 0.95 0.1
1 0.95 0.1
1.5 0.95 0.1
2 0.95 0.1
2.5 0.95 0.1
3 0.95 0.1
3.5 0.95 0.1
4 0.95 0.1
4.5 0.95 0.1
5 0.95 0.1
0 1 0.1
0.5 1 0.1
1 1 0.1
1.5 1 0.1
2 1 0.1
2.5 1 0.1
3 1 0.1
3.5 1 0.1
4 1 0.1
4.5 1 0.1
5 1 0.1
0 0 0.2
0.5 0 0.2
1 0 0.2
1.5 0 0.2
2 0 0.2
2.5 0 0.2
3 0 0.2
3.5 0 0.2
4 0 0.2
4.5 0 0.2
5 0 0.2
0 0.05 0.2
0.5 0.05 0.2
1 0.05 0.2
1.5 0.05 0.2
2 0.05 0.2
2.5 0.05 0.2
3 0.05 0.2
3.5 0.05 0.2
4 0.05 0.2
4.5 0.05 0.2
5 0.05 0.2
0 0.1 0.2
0.5 0.1 0.2
1 0.1 0.2
1.5 0.1 0.2
2 0.1 0.2
2.5 0.1 0.2
3 0.1 0.2
3.5 0.1 0.2
4 0.1 0.2
4.5 0.1 0.2
5 0.1 0.2
0 0.15 0.2
0.5 0.15 0.2
1 0.15 0.2
1.5 0.15 0.2
2 0.15 0.2
2.5 0.15 0.2
3 0.15 0.2
3.5 0.15 0.2
4 0.15 0.2
4.5 0.15 0.2
5 0.15 0.2
0 0.2 0.2
0.5 0.2 0.2
1 0.2 0.2
1.5 0.2 0.2
2 0.2 0.2
2.5 0.2 0.2
3 0.2 0.2
3.5 0.2 0.2
4 0.2 0.2
4.5 0.2 0.2
5 0.2 0.2
0 0.25 0.2
0.5 0.25 0.2
1 0.25 0.2
1.5 0.25 0.2
2 0.25 0.2
2.5 0.25 0.2
3 0.25 0.2
3.5 0.25 0.2
4 0.25 0.2
4.5 0.25 0.2
5 0.25 0.2
0 0.3 0.2
0.5 0.3 0.2
1 0.3 0.2
1.5 0.3 0.2
2 0.3 0.2
2.5 0.3 0.2
3 0.3 0.2
3.5 0.3 0.2
4 0.3 0.2
4.5 0.3 0.2
5 0.3 0.2
0 0.35 0.2
0.5 0.35 0.2
1 0.35 0.2
1.5 0.35 0.2
2 0.35 0.2
2.5 0.35 0.2
3 0.35 0.2
3.5 0.35 0.2
4 0.35 0.2
4.5 0.35 0.2
5 0.35 0.2
0 0.4 0.2
0.5 0.4 0.2
1 0.4 0.2
1.5 0.4 0.2
2 0.4 0.2
2.5 0.4 0.2
3 0.4 0.2
3.5 0.4 0.2
4 0.4 0.2
4.5 0.4 0.2
5 0.4 0.2
0 0.45 0.2
0.5 0.45 0.2
1 0.45 0.2
1.5 0.45 0.2
2 0.45 0.2
2.5 0.45 0.2
3 0.45 0.2
3.5 0.45 0.2
4 0.45 0.2
4.5 0.45 0.2
5 0.45 0.2
0 0.5 0.2
0.5 0.5 0.2
1 0.5 0.2
1.5 0.5 0.2
2 0.5 0.2
2.5 0.5 0.2
3 0.5 0.2
3.5 0.5 0.2
4 0.5 0.2
4.5 0.5 0.2
5 0.5 0.2
0 0.55 0.2
0.5 0.55 0.2
1 0.55 0.2
1.5 0.55 0.2
2 0.55 0.2
2.5 0.55 0.2
3 0.55 0.2
3.5 0.55 0.2
4 0.55 0.2
4.5 0.55 0.2
5 0.55 0.2
0 0.6 0.2
0.5 0.6 0.2
1 0.6 0.2
1.5 0.6 0.2
2 0.6 0.2
2.5 0.6 0.2
3 0.6 0.2
3.5 0.6 0.2
4 0.6 0.2
4.5 0.6 0.2
5 0.6 0.2
0 0.65 0.2
0.5 0.65 0.2
1 0.65 0.2
1.5 0.65 0.2
2 0.65 0.2
2.5 0.65 0.2
3 0.65 0.2
3.5 0.65 0.2
4 0.65 0.2
4.5 0.65 0.2
5 0.65 0.2
0 0.7 0.2
0.5 0.7 0.2
1 0.7 0.2
1.5 0.7 0.2
2 0.7 0.2
2.5 0.7 0.2
3 0.7 0.2
3.5 0.7 0.2
4 0.7 0.2
4.5 0.7 0.2
5 0.7 0.2
0 0.75 0.2
0.5 0.75 0.2
1 0.75 0.2
1.5 0.75 0.2
2 0.75 0.2
2.5 0.75 0.2
3 0.75 0.2
3.5 0.75 0.2
4 0.75 0.2
4.5 0.75 0.2
5 0.75 0.2
0 0.8 0.2
0.5 0.8 0.2
1 0.8 0.2
1.5 0.8 0.2
2 0.8 0.2
2.5 0.8 0.2
3 0.8 0.2
3.5 0.8 0.2
4 0.8 0.2
4.5 0.8 0.2
5 0.8 0.2
0 0.85 0.2
0.5 0.85 0.2
1 0.85 0.2
1.5 0.85 0.2
2 0.85 0.2
2.5 0.85 0.2
3 0.85 0.2
3.5 0.85 0.2
4 0.85 0.2
4.5 0.85 0.2
5 0.85 0.2
0 0.9 0.2
0.5 0.9 0.2
1 0.9 0.2
1.5 0.9 0.2
2 0.9 0.2
2.5 0.9 0.2
3 0.9 0.2
3.5 0.9 0.2
4 0.9 0.2
4.5 0.9 0.2
5 0.9 0.2
0 0.95 0.2
0.5 0.95 0.2
1 0.95 0.2
1.5 0.95 0.2
2 0.95 0.2
2.5 0.95 0.2
3 0.95 0.2
3.5 0.95 0.2
4 0.95 0.2
4.5 0.95 0.2
5 0.95 0.2
0 1 0.2
0.5 1 0.2
1 1 0.2
1.5 1 0.2
2 1 0.2
2.5 1 0.2
3 1 0.2
3.5 1 0.2
4 1 0.2
4.5 1 0.2
5 1 0.2
0 0 0.3
0.5 0 0.3
1 0 0.3
1.5 0 0.3
2 0 0.3
2.5 0 0.3
3 0 0.3
3.5 0 0.3
4 0 0.3
4.5 0 0.3
5 0 0.3
0 0.05 0.3
0.5 0.05 0.3
1 0.05 0.3
1.5 0.05 0.3
2 0.05 0.3
2.5 0.05 0.3
3 0.05 0.3
3.5 0.05 0.3
4 0.05 0.3
4.5 0.05 0.3
5 0.05 0.3
0 0.1 0.3
0.5 0.1 0.3
1 0.1 0.3
1.5 0.1 0.3
2 0.1 0.3
2.5 0.1 0.3
3 0.1 0.3
3.5 0.1 0.3
4 0.1 0.3
4.5 0.1 0.3
5 0.1 0.3
0 0.15 0.3
0.5 0.15 0.3
1 0.15 0.3
1.5 0.15 0.3
2 0.15 0.3
2.5 0.15 0.3
3 0.15 0.3
3.5 0.15 0.3
4 0.15 0.3
4.5 0.15 0.3
5 0.15 0.3
0 0.2 0.3
0.5 0.2 0.3
1 0.2 0.3
1.5 0.2 0.3
2 0.2 0.3
2.5 0.2 0.3
3 0.2 0.3
3.5 0.2 0.3
4 0.2 0.3
4.5 0.2 0.3
5 0.2 0.3
0 0.25 0.3
0.5 0.25 0.3
1 0.25 0.3
1.5 0.25 0.3
2 0.25 0.3
2.5 0.25 0.3
3 0.25 0.3
3.5 0.25 0.3
4 0.25 0.3
4.5 0.25 0.3
5 0.25 0.3
0 0.3 0.3
0.5 0.3 0.3
1 0.3 0.3
1.5 0.3 0.3
2 0.3 0.3
2.5 0.3 0.3
3 0.3 0.3
3.5 0.3 0.3
4 0.3 0.3
4.5 0.3 0.3
5 0.3 0.3
0 0.35 0.3
0.5 0.35 0.3
1 0.35 0.3
1.5 0.35 0.3
2 0.35 0.3
2.5 0.35 0.3
3 0.35 0.3
3.5 0.35 0.3
4 0.35 0.3
4.5 0.35 0.3
5 0.35 0.3
0 0.4 0.3
0.5 0.4 0.3
1 0.4 0.3
1.5 0.4 0.3
2 0.4 0.3
2.5 0.4 0.3
3 0.4 0.3
3.5 0.4 0.3
4 0.4 0.3
4.5 0.4 0.3
5 0.4 0.3
0 0.45 0.3
0.5 0.45 0.3
1 0.45 0.3
1.5 0.45 0.3
2 0.45 0.3
2.5 0.45 0.3
3 0.45 0.3
3.5 0.45 0.3
4 0.45 0.3
4.5 0.45 0.3
5 0.45 0.3
0 0.5 0.3
0.5 0.5 0.3
1 0.5 0.3
1.5 0.5 0.3
2 0.5 0.3
2.5 0.5 0.3
3 0.5 0.3
3.5 0.5 0.3
4 0.5 0.3
4.5 0.5 0.3
5 0.5 0.3
0 0.55 0.3
0.5 0.55 0.3
1 0.55 0.3
1.5 0.55 0.3
2 0.55 0.3
2.5 0.55 0.3
3 0.55 0.3
3.5 0.55 0.3
4 0.55 0.3
4.5 0.55 0.3
5 0.55 0.3
0 0.6 0.3
0.5 0.6 0.3
1 0.6 0.3
1.5 0.6 0.3
2 0.6 0.3
2.5 0.6 0.3
3 0.6 0.3
3.5 0.6 0.3
4 0.6 0.3
4.5 0.6 0.3
5 0.6 0.3
0 0.65 0.3
0.5 0.65 0.3
1 0.65 0.3
1.5 0.65 0.3
2 0.65 0.3
2.5 0.65 0.3
3 0.65 0.3
3.5 0.65 0.3
4 0.65 0.3
4.5 0.65 0.3
5 0.65 0.3
0 0.7 0.3
0.5 0.7 0.3
1 0.7 0.3
1.5 0.7 0.3
2 0.7 0.3
2.5 0.7 0.3
3 0.7 0.3
3.5 0.7 0.3
4 0.7 0.3
4.5 0.7 0.3
5 0.7 0.3
0 0.75 0.3
0.5 0.75 0.3
1 0.75 0.3
1.5 0.75 0.3
2 0.75 0.3
2.5 0.75 0.3
3 0.75 0.3
3.5 0.75 0.3
4 0.75 0.3
4.5 0.75 0.3
5 0.75 0.3
0 0.8 0.3
0.5 0.8 0.3
1 0.8 0.3
1.5 0.8 0.3
2 0.8 0.3
2.5 0.8 0.3
3 0.8 0.3
3.5 0.8 0.3
4 0.8 0.3
4.5 0.8 0.3
5 0.8 0.3
0 0.85 0.3
0.5 0.85 0.3
1 0.85 0.3
1.5 0.85 0.3
2 0.85 0.3
2.5 0.85 0.3
3 0.85 0.3
3.5 0.85 0.3
4 0.85 0.3
4.5 0.85 0.3
5 0.85 0.3
0 0.9 0.3
0.5 0.9 0.3
1 0.9 0.3
1.5 0.9 0.3
2 0.9 0.3
2.5 0.9 0.3
3 0.9 0.3
3.5 0.9 0.3
4 0.9 0.3
4.5 0.9 0.3
5 0.9 0.3
0 0.95 0.3
0.5 0.95 0.3
1 0.95 0.3
1.5 0.95 0.3
2 0.95 0.3
2.5 0.95 0.3
3 0.95 0.3
3.5 0.95 0.3
4 0.95 0.3
4.5 0.95 0.3
5 0.95 0.3
0 1 0.3
0.5 1 0.3
1 1 0.3
1.5 1 0.3
2 1 0.3
2.5 1 0.3
3 1 0.3
3.5 1 0.3
4 1 0.3
4.5 1 0.3
5 1 0.3
0 0 0.4
[...]
CELL_DATA 2000
SCALARS pressure float 1
LOOKUP_TABLE default
0
0
0.871583
1.02996
0.852212
0.687958
0.525695
0.363932
0.201447
0.0244443
0
0
0.872564
1.02187
0.851585
0.687842
0.525669
0.363928
0.2015
0.027354
0
0
0.833499
1.01737
0.850795
0.687703
0.525637
0.363927
0.201608
0.0299021
0
0
0.829348
1.00682
0.849924
0.68755
0.5256
0.363928
0.201747
0.0320135
1.93831
2.1055
0.847737
0.998108
0.849036
0.687388
0.52556
0.363929
0.201896
0.0337317
1.93234
2.08263
0.89419
0.992809
0.848237
0.687225
0.525517
0.363929
0.202039
0.0350995
1.9213
2.05229
0.947846
0.990622
0.84759
0.687067
0.525472
0.363927
0.202165
0.0361523
1.90621
2.0203
1.00133
0.99072
0.847123
0.686919
0.525427
0.363923
0.202265
0.0369179
1.89018
1.9895
1.0507
0.99246
0.846835
0.686783
0.525381
0.363916
0.202333
0.0374168
1.87545
1.96129
1.09485
0.995302
0.846704
0.68666
0.525335
0.363904
0.202366
0.0376626
1.863
1.93619
1.1335
0.998807
0.846701
0.686551
0.52529
0.36389
0.202362
0.0376617
1.85354
1.91431
1.16675
1.00262
0.846793
0.686453
0.525246
0.363871
0.20232
0.0374143
1.84769
1.89555
1.19489
1.00645
0.846941
0.686365
0.525203
0.36385
0.202244
0.0369138
1.84566
1.87976
1.21828
1.01007
0.847112
0.686284
0.525162
0.363827
0.202136
0.0361466
1.84718
1.8668
1.23729
1.01329
0.847273
0.686207
0.525123
0.363802
0.202002
0.0350923
1.85191
1.85656
1.25228
1.01599
0.847394
0.686132
0.525086
0.363777
0.201852
0.0337232
1.85924
1.84899
1.26354
1.01806
0.847452
0.686057
0.525052
0.363754
0.201697
0.0320037
1.8673
1.84399
1.27135
1.01941
0.847428
0.68598
0.525021
0.363734
0.201553
0.0298912
1.87336
1.84155
1.27593
1.02001
0.847311
0.6859
0.524992
0.363719
0.20144
0.0273421
1.87669
1.84137
1.27727
1.01983
0.847106
0.685822
0.524969
0.363709
0.201384
0.0244317
0
0
0.875047
1.02555
0.851803
0.687869
0.525676
0.363944
0.201676
0.0293478
0
0
0.875062
1.01868
0.851079
0.687737
0.525647
0.36394
0.201741
0.0328858
0
0
0.832572
1.01469
0.850335
0.6876
0.525615
0.363939
0.201865
0.0355443
0
0
0.856586
1.00641
0.849495
0.687453
0.525579
0.363941
0.202012
0.037711
1.92125
2.16811
0.771315
0.995323
0.848644
0.687302
0.525542
0.363942
0.202166
0.0394626
1.91435
2.14335
0.830666
0.988327
0.847888
0.687153
0.525502
0.363944
0.202312
0.0408511
1.90353
2.0905
0.907269
0.987261
0.84731
0.68701
0.52546
0.363943
0.20244
0.0419167
1.88995
2.04524
0.975865
0.988536
0.846922
0.686878
0.525419
0.36394
0.202541
0.0426903
1.87436
2.00681
1.035
0.991115
0.846713
0.686758
0.525376
0.363934
0.202611
0.0431938
1.85837
1.97419
1.08532
0.994553
0.846655
0.686652
0.525335
0.363924
0.202644
0.0434417
1.84479
1.94632
1.12791
0.998485
0.846719
0.686558
0.525294
0.36391
0.20264
0.0434409
1.83478
1.92251
1.16371
1.0026
0.846867
0.686475
0.525253
0.363892
0.202598
0.0431915
1.82878
1.9022
1.19351
1.00665
0.847065
0.686401
0.525214
0.363872
0.202521
0.0426865
1.827
1.88497
1.21795
1.01043
0.847277
0.686333
0.525177
0.363849
0.202412
0.0419115
1.82936
1.87055
1.23759
1.01377
0.847472
0.686267
0.525141
0.363825
0.202277
0.0408444
1.8351
1.85869
1.25291
1.01654
0.84762
0.686201
0.525106
0.3638
0.202124
0.0394547
1.84173
1.84944
1.26429
1.01866
0.847699
0.686133
0.525074
0.363777
0.201964
0.0377018
1.84806
1.843
1.27206
1.02004
0.84769
0.68606
0.525043
0.363757
0.201812
0.0355341
1.85379
1.83947
1.27646
1.02063
0.847577
0.685982
0.525015
0.363741
0.201684
0.0328747
1.85825
1.83933
1.27761
1.02035
0.847334
0.685893
0.524989
0.36373
0.201615
0.0293359
0
0
0.8797
1.02286
0.851531
0.687802
0.525662
0.363967
0.201994
0.0328362
0
0
0.877463
1.01709
0.850821
0.687669
0.525632
0.363963
0.202065
0.0364684
0
0
0.843035
1.01421
0.850128
0.687535
0.5256
0.363963
0.202194
0.039192
0
0
0.867889
1.00772
0.849356
0.687395
0.525566
0.363965
0.202347
0.0414049
1.90514
2.19132
0.73327
0.99621
0.848541
0.687252
0.52553
0.363968
0.202506
0.0431886
1.89719
2.20557
0.755231
0.98622
0.847764
0.68711
0.525492
0.36397
0.202655
0.0445991
1.88823
2.14435
0.85671
0.983339
0.847148
0.686976
0.525454
0.36397
0.202786
0.0456796
1.88226
2.08489
0.943897
0.985176
0.846753
0.686852
0.525414
0.363968
0.202889
0.0464629
1.8775
2.03666
1.0142
0.988559
0.846566
0.686742
0.525375
0.363962
0.202959
0.0469723
1.87171
1.9972
1.07198
0.992665
0.846545
0.686645
0.525336
0.363953
0.202993
0.0472229
1.86437
1.96475
1.11965
0.997131
0.846648
0.686561
0.525298
0.36394
0.202989
0.0472222
1.85659
1.93773
1.15894
1.00167
0.846836
0.686488
0.52526
0.363923
0.202948
0.0469701
1.85038
1.91496
1.19112
1.00606
0.847072
0.686423
0.525224
0.363903
0.20287
0.0464593
1.84589
1.8957
1.21717
1.0101
0.84732
0.686363
0.525188
0.363881
0.202759
0.0456746
1.84143
1.87951
1.23785
1.01364
0.847546
0.686305
0.525154
0.363857
0.202622
0.0445928
1.8363
1.86606
1.25372
1.01658
0.847723
0.686246
0.525122
0.363832
0.202466
0.043181
1.83158
1.85498
1.26523
1.01882
0.847828
0.686183
0.52509
0.363809
0.202301
0.0413962
1.8301
1.84648
1.27289
1.0203
0.847839
0.686115
0.525061
0.363789
0.202143
0.0391822
1.83414
1.84138
1.27714
1.02093
0.847735
0.686038
0.525033
0.363772
0.202009
0.0364578
1.84018
1.84046
1.27817
1.02066
0.84749
0.685948
0.525007
0.363761
0.201935
0.0328247
0
0
0.878729
1.02195
0.851388
0.687759
0.525653
0.36399
0.202265
0.0350067
0
0
0.875551
1.01649
0.850693
0.687627
0.525623
0.363987
0.202337
0.0386591
0
0
0.83939
1.0141
0.850033
0.687497
0.525592
0.363987
0.202469
0.0414065
0
0
0.85724
1.00827
0.849307
0.687362
0.525559
0.36399
0.202625
0.0436411
1.89744
2.22299
0.718536
0.997088
0.848542
0.687225
0.525524
0.363993
0.202786
0.0454427
1.88928
2.24285
0.721045
0.986688
0.8478
0.68709
0.525488
0.363995
0.202938
0.046867
1.88253
2.18195
0.819108
0.982645
0.847161
0.686961
0.52545
0.363996
0.203071
0.0479577
1.8831
2.11641
0.917214
0.9837
0.846709
0.68684
0.525413
0.363994
0.203175
0.0487481
1.89073
2.06217
0.996582
0.986893
0.84648
0.686733
0.525375
0.363989
0.203246
0.0492619
1.90038
2.01731
1.06042
0.991061
0.846441
0.686639
0.525338
0.363981
0.203281
0.0495147
1.90606
1.9794
1.11236
0.995691
0.84654
0.686559
0.525301
0.363968
0.203277
0.049514
1.9053
1.94778
1.15482
1.00044
0.846736
0.68649
0.525265
0.363952
0.203235
0.0492598
1.89892
1.92243
1.18936
1.00505
0.846986
0.68643
0.52523
0.363932
0.203156
0.0487446
1.88698
1.90261
1.21697
1.00933
0.847257
0.686375
0.525196
0.36391
0.203045
0.0479529
1.86889
1.88658
1.23839
1.01314
0.847518
0.686322
0.525163
0.363886
0.202906
0.0468609
1.84769
1.87265
1.25444
1.01632
0.847735
0.686269
0.525132
0.363861
0.202747
0.0454354
1.83012
1.8605
1.26596
1.01875
0.847873
0.686212
0.525102
0.363838
0.20258
0.0436327
1.82195
1.85075
1.27356
1.02033
0.847905
0.686147
0.525073
0.363818
0.202419
0.0413971
1.82394
1.84447
1.27772
1.02103
0.847813
0.686072
0.525046
0.363801
0.202283
0.0386488
1.83046
1.84291
1.27867
1.02077
0.847573
0.685982
0.525019
0.36379
0.202207
0.0349956
0
0
0.876367
1.02164
0.851329
0.687739
0.525649
0.364004
0.202416
0.0360414
0
0
0.872366
1.01626
0.850642
0.687608
0.525619
0.364001
0.202489
0.039699
0
0
0.834331
1.01403
0.849997
0.68748
0.525589
0.364002
0.202622
0.0424542
0
0
0.849759
1.0084
0.849292
0.687347
0.525556
0.364004
0.202779
0.0446969
1.89487
2.24021
0.709361
0.997377
0.848551
0.687214
0.525521
0.364008
0.202941
0.0465059
1.88675
2.261
0.71018
0.987034
0.847833
0.687082
0.525486
0.364011
0.203095
0.0479364
1.88197
2.19997
0.804512
0.982998
0.847217
0.686957
0.525449
0.364012
0.203228
0.049032
1.88727
2.13309
0.902408
0.983961
0.846771
0.68684
0.525412
0.36401
0.203333
0.0498258
1.90194
2.07637
0.98499
0.986791
0.846509
0.686733
0.525375
0.364006
0.203405
0.0503419
1.92066
2.02826
1.05309
0.990478
0.846409
0.686638
0.525339
0.363997
0.20344
0.0505958
1.93601
1.98683
1.10853
0.994771
0.846456
0.686555
0.525303
0.363985
0.203436
0.0505951
1.94115
1.95188
1.15327
0.99943
0.846624
0.686486
0.525267
0.363968
0.203394
0.0503399
1.93463
1.925
1.189
1.00418
0.846884
0.686427
0.525233
0.363949
0.203314
0.0498224
1.91651
1.90549
1.21706
1.00872
0.847188
0.686377
0.5252
0.363927
0.203202
0.0490272
1.88844
1.88998
1.23864
1.01276
0.847482
0.686329
0.525168
0.363903
0.203062
0.0479304
1.85786
1.8763
1.25479
1.01611
0.847725
0.686279
0.525137
0.363879
0.202903
0.0464987
1.833
1.86389
1.26634
1.01865
0.847881
0.686224
0.525107
0.363855
0.202735
0.0446887
1.82001
1.85355
1.27392
1.0203
0.847926
0.686161
0.525079
0.363835
0.202573
0.0424449
1.82011
1.84664
1.27805
1.02103
0.847842
0.686088
0.525052
0.363818
0.202435
0.0396889
1.82673
1.84474
1.27895
1.02079
0.847606
0.685998
0.525025
0.363806
0.202359
0.0360304
0
0
0.876367
1.02164
0.851329
0.687739
0.525649
0.364004
0.202416
0.0360414
0
0
0.872366
1.01626
0.850642
0.687608
0.525619
0.364001
0.202489
0.039699
0
0
0.834331
1.01403
0.849997
0.68748
0.525589
0.364002
0.202622
0.0424542
0
0
0.849759
1.0084
0.849292
0.687347
0.525556
0.364004
0.202779
0.0446969
1.89487
2.24021
0.709361
0.997377
0.848551
0.687214
0.525521
0.364008
0.202941
0.0465059
1.88675
2.261
0.71018
0.987034
0.847833
0.687082
0.525486
0.364011
0.203095
0.0479364
1.88197
2.19997
0.804512
0.982998
0.847217
0.686957
0.525449
0.364012
0.203228
0.049032
1.88727
2.13309
0.902408
0.983961
0.846771
0.68684
0.525412
0.36401
0.203333
0.0498258
1.90194
2.07637
0.98499
0.986791
0.846509
0.686733
0.525375
0.364006
0.203405
0.0503419
1.92066
2.02826
1.05309
0.990478
0.846409
0.686638
0.525339
0.363997
0.20344
0.0505958
1.93601
1.98683
1.10853
0.994771
0.846456
0.686555
0.525303
0.363985
0.203436
0.0505951
1.94115
1.95188
1.15327
0.99943
0.846624
0.686486
0.525267
0.363968
0.203394
0.0503399
1.93463
1.925
1.189
1.00418
0.846884
0.686427
0.525233
0.363949
0.203314
0.0498224
1.91651
1.90549
1.21706
1.00872
0.847188
0.686377
0.5252
0.363927
0.203202
0.0490272
1.88844
1.88998
1.23864
1.01276
0.847482
0.686329
0.525168
0.363903
0.203062
0.0479304
1.85786
1.8763
1.25479
1.01611
0.847725
0.686279
0.525137
0.363879
0.202903
0.0464987
1.833
1.86389
1.26634
1.01865
0.847881
0.686224
0.525107
0.363855
0.202735
0.0446887
1.82001
1.85355
1.27392
1.0203
0.847926
0.686161
0.525079
0.363835
0.202573
0.0424449
1.82011
1.84664
1.27805
1.02103
0.847842
0.686088
0.525052
0.363818
0.202435
0.0396889
1.82673
1.84474
1.27895
1.02079
0.847606
0.685998
0.525025
0.363806
0.202359
0.0360304
0
0
0.878729
1.02195
0.851388
0.687759
0.525653
0.36399
0.202265
0.0350067
0
0
0.875551
1.01649
0.850693
0.687627
0.525623
0.363987
0.202337
0.0386591
0
0
0.83939
1.0141
0.850033
0.687497
0.525592
0.363987
0.202469
0.0414065
0
0
0.85724
1.00827
0.849307
0.687362
0.525559
0.36399
0.202625
0.0436411
1.89744
2.22299
0.718536
0.997088
0.848542
0.687225
0.525524
0.363993
0.202786
0.0454427
1.88928
2.24285
0.721045
0.986688
0.8478
0.68709
0.525488
0.363995
0.202938
0.046867
1.88253
2.18195
0.819108
0.982645
0.847161
0.686961
0.52545
0.363996
0.203071
0.0479577
1.8831
2.11641
0.917214
0.9837
0.846709
0.68684
0.525413
0.363994
0.203175
0.0487481
1.89073
2.06217
0.996582
0.986893
0.84648
0.686733
0.525375
0.363989
0.203246
0.0492619
1.90038
2.01731
1.06042
0.991061
0.846441
0.686639
0.525338
0.363981
0.203281
0.0495147
1.90606
1.9794
1.11236
0.995691
0.84654
0.686559
0.525301
0.363968
0.203277
0.049514
1.9053
1.94778
1.15482
1.00044
0.846736
0.68649
0.525265
0.363952
0.203235
0.0492598
1.89892
1.92243
1.18936
1.00505
0.846986
0.68643
0.52523
0.363932
0.203156
0.0487446
1.88698
1.90261
1.21697
1.00933
0.847257
0.686375
0.525196
0.36391
0.203045
0.0479529
1.86889
1.88658
1.23839
1.01314
0.847518
0.686322
0.525163
0.363886
0.202906
0.0468609
1.84769
1.87265
1.25444
1.01632
0.847735
0.686269
0.525132
0.363861
0.202747
0.0454354
1.83012
1.8605
1.26596
1.01875
0.847873
0.686212
0.525102
0.363838
0.20258
0.0436327
1.82195
1.85075
1.27356
1.02033
0.847905
0.686147
0.525073
0.363818
0.202419
0.0413971
1.82394
1.84447
1.27772
1.02103
0.847813
0.686072
0.525046
0.363801
0.202283
0.0386488
1.83046
1.84291
1.27867
1.02077
0.847573
0.685982
0.525019
0.36379
0.202207
0.0349956
0
0
0.8797
1.02286
0.851531
0.687802
0.525662
0.363967
0.201994
0.0328362
0
0
0.877463
1.01709
0.850821
0.687669
0.525632
0.363963
0.202065
0.0364684
0
0
0.843035
1.01421
0.850128
0.687535
0.5256
0.363963
0.202194
0.039192
0
0
0.867889
1.00772
0.849356
0.687395
0.525566
0.363965
0.202347
0.0414049
1.90514
2.19132
0.73327
0.99621
0.848541
0.687252
0.52553
0.363968
0.202506
0.0431886
1.89719
2.20557
0.755231
0.98622
0.847764
0.68711
0.525492
0.36397
0.202655
0.0445991
1.88823
2.14435
0.85671
0.983339
0.847148
0.686976
0.525454
0.36397
0.202786
0.0456796
1.88226
2.08489
0.943897
0.985176
0.846753
0.686852
0.525414
0.363968
0.202889
0.0464629
1.8775
2.03666
1.0142
0.988559
0.846566
0.686742
0.525375
0.363962
0.202959
0.0469723
1.87171
1.9972
1.07198
0.992665
0.846545
0.686645
0.525336
0.363953
0.202993
0.0472229
1.86437
1.96475
1.11965
0.997131
0.846648
0.686561
0.525298
0.36394
0.202989
0.0472222
1.85659
1.93773
1.15894
1.00167
0.846836
0.686488
0.52526
0.363923
0.202948
0.0469701
1.85038
1.91496
1.19112
1.00606
0.847072
0.686423
0.525224
0.363903
0.20287
0.0464593
1.84589
1.8957
1.21717
1.0101
0.84732
0.686363
0.525188
0.363881
0.202759
0.0456746
1.84143
1.87951
1.23785
1.01364
0.847546
0.686305
0.525154
0.363857
0.202622
0.0445928
1.8363
1.86606
1.25372
1.01658
0.847723
0.686246
0.525122
0.363832
0.202466
0.043181
1.83158
1.85498
1.26523
1.01882
0.847828
0.686183
0.52509
0.363809
0.202301
0.0413962
1.8301
1.84648
1.27289
1.0203
0.847839
0.686115
0.525061
0.363789
0.202143
0.0391822
1.83414
1.84138
1.27714
1.02093
0.847735
0.686038
0.525033
0.363772
0.202009
0.0364578
1.84018
1.84046
1.27817
1.02066
0.84749
0.685948
0.525007
0.363761
0.201935
0.0328247
0
0
0.875047
1.02555
0.851803
0.687869
0.525676
0.363944
0.201676
0.0293478
0
0
0.875062
1.01868
0.851079
0.687737
0.525647
0.36394
0.201741
0.0328858
0
0
0.832572
1.01469
0.850335
0.6876
0.525615
0.363939
0.201865
0.0355443
0
0
0.856586
1.00641
0.849495
0.687453
0.525579
0.363941
0.202012
0.037711
1.92125
2.16811
0.771315
0.995323
0.848644
0.687302
0.525542
0.363942
0.202166
0.0394626
1.91435
2.14335
0.830666
0.988327
0.847888
0.687153
0.525502
0.363944
0.202312
0.0408511
1.90353
2.0905
0.907269
0.987261
0.84731
0.68701
0.52546
0.363943
0.20244
0.0419167
1.88995
2.04524
0.975865
0.988536
0.846922
0.686878
0.525419
0.36394
0.202541
0.0426903
1.87436
2.00681
1.035
0.991115
0.846713
0.686758
0.525376
0.363934
0.202611
0.0431938
1.85837
1.97419
1.08532
0.994553
0.846655
0.686652
0.525335
0.363924
0.202644
0.0434417
1.84479
1.94632
1.12791
0.998485
0.846719
0.686558
0.525294
0.36391
0.20264
0.0434409
1.83478
1.92251
1.16371
1.0026
0.846867
0.686475
0.525253
0.363892
0.202598
0.0431915
1.82878
1.9022
1.19351
1.00665
0.847065
0.686401
0.525214
0.363872
0.202521
0.0426865
1.827
1.88497
1.21795
1.01043
0.847277
0.686333
0.525177
0.363849
0.202412
0.0419115
1.82936
1.87055
1.23759
1.01377
0.847472
0.686267
0.525141
0.363825
0.202277
0.0408444
1.8351
1.85869
1.25291
1.01654
0.84762
0.686201
0.525106
0.3638
0.202124
0.0394547
1.84173
1.84944
1.26429
1.01866
0.847699
0.686133
0.525074
0.363777
0.201964
0.0377018
1.84806
1.843
1.27206
1.02004
0.84769
0.68606
0.525043
0.363757
0.201812
0.0355341
1.85379
1.83947
1.27646
1.02063
0.847577
0.685982
0.525015
0.363741
0.201684
0.0328747
1.85825
1.83933
1.27761
1.02035
0.847334
0.685893
0.524989
0.36373
0.201615
0.0293359
0
0
0.871583
1.02996
0.852212
0.687958
0.525695
0.363932
0.201447
0.0244443
0
0
0.872564
1.02187
0.851585
0.687842
0.525669
0.363928
0.2015
0.027354
0
0
0.833499
1.01737
0.850795
0.687703
0.525637
0.363927
0.201608
0.0299021
0
0
0.829348
1.00682
0.849924
0.68755
0.5256
0.363928
0.201747
0.0320135
1.93831
2.1055
0.847737
0.998108
0.849036
0.687388
0.52556
0.363929
0.201896
0.0337317
1.93234
2.08263
0.89419
0.992809
0.848237
0.687225
0.525517
0.363929
0.202039
0.0350995
1.9213
2.05229
0.947846
0.990622
0.84759
0.687067
0.525472
0.363927
0.202165
0.0361523
1.90621
2.0203
1.00133
0.99072
0.847123
0.686919
0.525427
0.363923
0.202265
0.0369179
1.89018
1.9895
1.0507
0.99246
0.846835
0.686783
0.525381
0.363916
0.202333
0.0374168
1.87545
1.96129
1.09485
0.995302
0.846704
0.68666
0.525335
0.363904
0.202366
0.0376626
1.863
1.93619
1.1335
0.998807
0.846701
0.686551
0.52529
0.36389
0.202362
0.0376617
1.85354
1.91431
1.16675
1.00262
0.846793
0.686453
0.525246
0.363871
0.20232
0.0374143
1.84769
1.89555
1.19489
1.00645
0.846941
0.686365
0.525203
0.36385
0.202244
0.0369138
1.84566
1.87976
1.21828
1.01007
0.847112
0.686284
0.525162
0.363827
0.202136
0.0361466
1.84718
1.8668
1.23729
1.01329
0.847273
0.686207
0.525123
0.363802
0.202002
0.0350923
1.85191
1.85656
1.25228
1.01599
0.847394
0.686132
0.525086
0.363777
0.201852
0.0337232
1.85924
1.84899
1.26354
1.01806
0.847452
0.686057
0.525052
0.363754
0.201697
0.0320037
1.8673
1.84399
1.27135
1.01941
0.847428
0.68598
0.525021
0.363734
0.201553
0.0298912
1.87336
1.84155
1.27593
1.02001
0.847311
0.6859
0.524992
0.363719
0.20144
0.0273421
1.87669
1.84137
1.27727
1.01983
0.847106
0.685822
0.524969
0.363709
0.201384
0.0244317

VECTORS velocity float
0 0 0
0 0 0
0.84711 -0.0339714 0.000647996
0.711032 -0.00396032 0.00034992
0.756949 -0.000830136 4.76281e-05
0.766766 -0.000180129 9.59576e-06
0.768919 -4.09642e-05 2.0017e-06
0.769426 -1.01979e-05 -1.06796e-06
0.769766 -1.28526e-05 -2.09044e-05
0.777854 -0.000553884 -0.000463287
0 0 0
0 0 0
-0.179162 -0.101403 0.000719616
0.71756 -0.0135913 0.00027855
0.781615 -0.00256021 5.16455e-05
0.792219 -0.000551822 1.05869e-05
0.794506 -0.000125475 2.21611e-06
0.795043 -3.11943e-05 -1.06201e-06
0.795393 -3.8375e-05 -2.20299e-05
0.797552 -0.0010438 -0.000512188
0 0 0
0 0 0
0.862165 -0.170983 0.00183902
0.739759 -0.0229297 0.000229395
0.783325 -0.00428675 4.61005e-05
0.793129 -0.000925234 1.00874e-05
0.795302 -0.000210579 2.14261e-06
0.795814 -5.21666e-05 -1.10592e-06
0.796115 -5.90174e-05 -2.27617e-05
0.798092 -0.000896803 -0.000522794
0 0 0
0 0 0
-0.163983 -0.242116 0.000887062
0.734387 -0.0309264 0.000113425
0.784438 -0.00586688 4.12311e-05
0.793384 -0.00127337 9.23252e-06
0.795373 -0.000290392 1.97577e-06
0.795844 -7.15414e-05 -1.16982e-06
0.796098 -7.09883e-05 -2.32482e-05
0.798148 -0.000738956 -0.000528443
0.463504 -0.0198325 -0.0426867
0.9472 0.00231207 -0.0190764
0.875167 -0.267492 0.00952172
0.755584 -0.0379448 0.000496971
0.786132 -0.00725502 4.15771e-05
0.793689 -0.00158571 8.17266e-06
0.79544 -0.0003626 1.74326e-06
0.795857 -8.8729e-05 -1.24485e-06
0.796069 -7.58436e-05 -2.35544e-05
0.798186 -0.000597304 -0.000531697
0.525144 -0.0532674 -0.0487674
1.00347 0.00240985 -0.0152651
0.929774 -0.244996 0.00871979
0.770399 -0.0422213 0.000615573
0.788028 -0.00839283 3.88458e-05
0.794053 -0.0018538 6.87129e-06
0.795519 -0.000425337 1.45517e-06
0.795872 -0.0001033 -1.32906e-06
0.796047 -7.50756e-05 -2.37618e-05
0.798216 -0.000470281 -0.00053365
0.568945 -0.0734577 -0.0555252
0.998083 -0.00227797 -0.0121794
0.930371 -0.219273 0.00493683
0.781797 -0.0444993 0.000428133
0.790052 -0.00925966 3.02734e-05
0.794462 -0.00207101 5.36089e-06
0.79561 -0.000477025 1.12539e-06
0.795891 -0.000114927 -1.41936e-06
0.796032 -6.98842e-05 -2.39055e-05
0.79824 -0.00035511 -0.000534841
0.606266 -0.0803027 -0.0622917
0.99212 -0.00666916 -0.0105296
0.928539 -0.194273 0.00281286
0.791577 -0.0451719 0.0002743
0.79214 -0.00984588 2.12053e-05
0.794904 -0.00223243 3.75943e-06
0.795709 -0.000516407 7.67e-07
0.795912 -0.000123378 -1.51326e-06
0.796023 -6.12632e-05 -2.4006e-05
0.798259 -0.000248988 -0.000535562
0.636675 -0.0754699 -0.06838
0.987225 -0.0096857 -0.00971202
0.926786 -0.170908 0.0015341
0.800118 -0.0445674 0.000164185
0.794226 -0.0101536 1.24018e-05
0.795367 -0.00233499 2.12955e-06
0.795815 -0.000542571 3.91855e-07
0.795935 -0.000128517 -1.60838e-06
0.796019 -5.00623e-05 -2.4075e-05
0.798271 -0.000149188 -0.000535976
0.659824 -0.0611221 -0.0733303
0.982968 -0.0110241 -0.00933526
0.925187 -0.149352 0.00072292
0.807532 -0.0429437 8.5136e-05
0.796255 -0.0101934 4.40414e-06
0.795838 -0.00237738 5.25207e-07
0.795924 -0.000554961 1.08735e-08
0.79596 -0.000130297 -1.70239e-06
0.79602 -3.70397e-05 -2.41189e-05
0.798279 -5.30784e-05 -0.000536168
0.67534 -0.0397792 -0.0767439