# vtk DataFile Version 2.0
TestTestTest
ASCII

DATASET STRUCTURED_GRID
DIMENSIONS 11 21 11
POINTS 2541 float
0 0 0
0.5 0 0
1 0 0
1.5 0 0
2 0 0
2.5 0 0
3 0 0
3.5 0 0
4 0 0
4.5 0 0
5 0 0
0 0.05 0
0.5 0.05 0
1 0.05 0
1.5 0.05 0
2 0.05 0
2.5 0.05 0
3 0.05 0
3.5 0.05 0
4 0.05 0
4.5 0.05 0
5 0.05 0
0 0.1 0
0.5 0.1 0
1 0.1 0
1.5 0.1 0
2 0.1 0
2.5 0.1 0
3 0.1 0
3.5 0.1 0
4 0.1 0
4.5 0.1 0
5 0.1 0
0 0.15 0
0.5 0.15 0
1 0.15 0
1.5 0.15 0
2 0.15 0
2.5 0.15 0
3 0.15 0
3.5 0.15 0
4 0.15 0
4.5 0.15 0
5 0.15 0
0 0.2 0
0.5 0.2 0
1 0.2 0
1.5 0.2 0
2 0.2 0
2.5 0.2 0
3 0.2 0
3.5 0.2 0
4 0.2 0
4.5 0.2 0
5 0.2 0
0 0.25 0
0.5 0.25 0
1 0.25 0
1.5 0.25 0
2 0.25 0
2.5 0.25 0
3 0.25 0
3.5 0.25 0
4 0.25 0
4.5 0.25 0
5 0.25 0
0 0.3 0
0.5 0.3 0
1 0.3 0
1.5 0.3 0
2 0.3 0
2.5 0.3 0
3 0.3 0
3.5 0.3 0
4 0.3 0
4.5 0.3 0
5 0.3 0
0 0.35 0
0.5 0.35 0
1 0.35 0
1.5 0.35 0
2 0.35 0
2.5 0.35 0
3 0.35 0
3.5 0.35 0
4 0.35 0
4.5 0.35 0
5 0.35 0
0 0.4 0
0.5 0.4 0
1 0.4 0
1.5 0.4 0
2 0.4 0
2.5 0.4 0
3 0.4 0
3.5 0.4 0
4 0.4 0
4.5 0.4 0
5 0.4 0
0 0.45 0
0.5 0.45 0
1 0.45 0
1.5 0.45 0
2 0.45 0
2.5 0.45 0
3 0.45 0
3.5 0.45 0
4 0.45 0
4.5 0.45 0
5 0.45 0
0 0.5 0
0.5 0.5 0
1 0.5 0
1.5 0.5 0
2 0.5 0
2.5 0.5 0
3 0.5 0
3.5 0.5 0
4 0.5 0
4.5 0.5 0
5 0.5 0
0 0.55 0
0.5 0.55 0
1 0.55 0
1.5 0.55 0
2 0.55 0
2.5 0.55 0
3 0.55 0
3.5 0.55 0
4 0.55 0
4.5 0.55 0
5 0.55 0
0 0.6 0
0.5 0.6 0
1 0.6 0
1.5 0.6 0
2 0.6 0
2.5 0.6 0
3 0.6 0
3.5 0.6 0
4 0.6 0
4.5 0.6 0
5 0.6 0
0 0.65 0
0.5 0.65 0
1 0.65 0
1.5 0.65 0
2 0.65 0
2.5 0.65 0
3 0.65 0
3.5 0.65 0
4 0.65 0
4.5 0.65 0
5 0.65 0
0 0.7 0
0.5 0.7 0
1 0.7 0
1.5 0.7 0
2 0.7 0
2.5 0.7 0
3 0.7 0
3.5 0.7 0
4 0.7 0
4.5 0.7 0
5 0.7 0
0 0.75 0
0.5 0.75 0
1 0.75 0
1.5 0.75 0
2 0.75 0
2.5 0.75 0
3 0.75 0
3.5 0.75 0
4 0.75 0
4.5 0.75 0
5 0.75 0
0 0.8 0
0.5 0.8 0
1 0.8 0
1.5 0.8 0
2 0.8 0
2.5 0.8 0
3 0.8 0
3.5 0.8 0
4 0.8 0
4.5 0.8 0
5 0.8 0
0 0.85 0
0.5 0.85 0
1 0.85 0
1.5 0.85 0
2 0.85 0
2.5 0.85 0
3 0.85 0
3.5 0.85 0
4 0.85 0
4.5 0.85 0
5 0.85 0
0 0.9 0
0.5 0.9 0
1 0.9 0
1.5 0.9 0
2 0.9 0
2.5 0.9 0
3 0.9 0
3.5 0.9 0
4 0.9 0
4.5 0.9 0
5 0.9 0
0 0.95 0
0.5 0.95 0
1 0.95 0
1.5 0.95 0
2 0.95 0
2.5 0.95 0
3 0.95 0
3.5 0.95 0
4 0.95 0
4.5 0.95 0
5 0.95 0
0 1 0
0.5 1 0
1 1 0
1.5 1 0
2 1 0
2.5 1 0
3 1 0
3.5 1 0
4 1 0
4.5 1 0
5 1 0
0 0 0.1
0.5 0 0.1
1 0 0.1
1.5 0 0.1
2 0 0.1
2.5 0 0.1
3 0 0.1
3.5 0 0.1
4 0 0.1
4.5 0 0.1
5 0 0.1
0 0.05 0.1
0.5 0.05 0.1
1 0.05 0.1
1.5 0.05 0.1
2 0.05 0.1
2.5 0.05 0.1
3 0.05 0.1
3.5 0.05 0.1
4 0.05 0.1
4.5 0.05 0.1
5 0.05 0.1
0 0.1 0.1
0.5 0.1 0.1
1 0.1 0.1
1.5 0.1 0.1
2 0.1 0.1
2.5 0.1 0.1
3 0.1 0.1
3.5 0.1 0.1
4 0.1 0.1
4.5 0.1 0.1
5 0.1 0.1
0 0.15 0.1
0.5 0.15 0.1
1 0.15 0.1
1.5 0.15 0.1
2 0.15 0.1
2.5 0.15 0.1
3 0.15 0.1
3.5 0.15 0.1
4 0.15 0.1
4.5 0.15 0.1
5 0.15 0.1
0 0.2 0.1
0.5 0.2 0.1
1 0.2 0.1
1.5 0.2 0.1
2 0.2 0.1
2.5 0.2 0.1
3 0.2 0.1
3.5 0.2 0.1
4 0.2 0.1
4.5 0.2 0.1
5 0.2 0.1
0 0.25 0.1
0.5 0.25 0.1
1 0.25 0.1
1.5 0.25 0.1
2 0.25 0.1
2.5 0.25 0.1
3 0.25 0.1
3.5 0.25 0.1
4 0.25 0.1
4.5 0.25 0.1
5 0.25 0.1
0 0.3 0.1
0.5 0.3 0.1
1 0.3 0.1
1.5 0.3 0.1
2 0.3 0.1
2.5 0.3 0.1
3 0.3 0.1
3.5 0.3 0.1
4 0.3 0.1
4.5 0.3 0.1
5 0.3 0.1
0 0.35 0.1
0.5 0.35 0.1
1 0.35 0.1
1.5 0.35 0.1
2 0.35 0.1
2.5 0.35 0.1
3 0.35 0.1
3.5 0.35 0.1
4 0.35 0.1
4.5 0.35 0.1
5 0.35 0.1
0 0.4 0.1
0.5 0.4 0.1
1 0.4 0.1
1.5 0.4 0.1
2 0.4 0.1
2.5 0.4 0.1
3 0.4 0.1
3.5 0.4 0.1
4 0.4 0.1
4.5 0.4 0.1
5 0.4 0.1
0 0.45 0.1
0.5 0.45 0.1
1 0.45 0.1
1.5 0.45 0.1
2 0.45 0.1
2.5 0.45 0.1
3 0.45 0.1
3.5 0.45 0.1
4 0.45 0.1
4.5 0.45 0.1
5 0.45 0.1
0 0.5 0.1
0.5 0.5 0.1
1 0.5 0.1
1.5 0.5 0.1
2 0.5 0.1
2.5 0.5 0.1
3 0.5 0.1
3.5 0.5 0.1
4 0.5 0.1
4.5 0.5 0.1
5 0.5 0.1
0 0.55 0.1
0.5 0.55 0.1
1 0.55 0.1
1.5 0.55 0.1
2 0.55 0.1
2.5 0.55 0.1
3 0.55 0.1
3.5 0.55 0.1
4 0.55 0.1
4.5 0.55 0.1
5 0.55 0.1
0 0.6 0.1
0.5 0.6 0.1
1 0.6 0.1
1.5 0.6 0.1
2 0.6 0.1
2.5 0.6 0.1
3 0.6 0.1
3.5 0.6 0.1
4 0.6 0.1
4.5 0.6 0.1
5 0.6 0.1
0 0.65 0.1
0.5 0.65 0.1
1 0.65 0.1
1.5 0.65 0.1
2 0.65 0.1
2.5 0.65 0.1
3 0.65 0.1
3.5 0.65 0.1
4 0.65 0.1
4.5 0.65 0.1
5 0.65 0.1
0 0.7 0.1
0.5 0.7 0.1
1 0.7 0.1
1.5 0.7 0.1
2 0.7 0.1
2.5 0.7 0.1
3 0.7 0.1
3.5 0.7 0.1
4 0.7 0.1
4.5 0.7 0.1
5 0.7 0.1
0 0.75 0.1
0.5 0.75 0.1
1 0.75 0.1
1.5 0.75 0.1
2 0.75 0.1
2.5 0.75 0.1
3 0.75 0.1
3.5 0.75 0.1
4 0.75 0.1
4.5 0.75 0.1
5 0.75 0.1
0 0.8 0.1
0.5 0.8 0.1
1 0.8 0.1
1.5 0.8 0.1
2 0.8 0.1
2.5 0.8 0.1
3 0.8 0.1
3.5 0.8 0.1
4 0.8 0.1
4.5 0.8 0.1
5 0.8 0.1
0 0.85 0.1
0.5 0.85 0.1
1 0.85 0.1
1.5 0.85 0.1
2 0.85 0.1
2.5 0.85 0.1
3 0.85 0.1
3.5 0.85 0.1
4 0.85 0.1
4.5 0.85 0.1
5 0.85 0.1
0 0.9 0.1
0.5 0.9 0.1
1 0.9 0.1
1.5 0.9 0.1
2 0.9 0.1
2.5 0.9 0.1
3 0.9 0.1
3.5 0.9 0.1
4 0.9 0.1
4.5 0.9 0.1
5 0.9 0.1
0 0.95 0.1
0.5 0.95 0.1
1 0.95 0.1
1.5 0.95 0.1
2 0.95 0.1
2.5 0.95 0.1
3 0.95 0.1
3.5 0.95 0.1
4 0.95 0.1
4.5 0.95 0.1
5 0.95 0.1
0 1 0.1
0.5 1 0.1
1 1 0.1
1.5 1 0.1
2 1 0.1
2.5 1 0.1
3 1 0.1
3.5 1 0.1
4 1 0.1
4.5 1 0.1
5 1 0.1
0 0 0.2
0.5 0 0.2
1 0 0.2
1.5 0 0.2
2 0 0.2
2.5 0 0.2
3 0 0.2
3.5 0 0.2
4 0 0.2
4.5 0 0.2
5 0 0.2
0 0.05 0.2
0.5 0.05 0.2
1 0.05 0.2
1.5 0.05 0.2
2 0.05 0.2
2.5 0.05 0.2
3 0.05 0.2
3.5 0.05 0.2
4 0.05 0.2
4.5 0.05 0.2
5 0.05 0.2
0 0.1 0.2
0.5 0.1 0.2
1 0.1 0.2
1.5 0.1 0.2
2 0.1 0.2
2.5 0.1 0.2
3 0.1 0.2
3.5 0.1 0.2
4 0.1 0.2
4.5 0.1 0.2
5 0.1 0.2
0 0.15 0.2
0.5 0.15 0.2
1 0.15 0.2
1.5 0.15 0.2
2 0.15 0.2
2.5 0.15 0.2
3 0.15 0.2
3.5 0.15 0.2
4 0.15 0.2
4.5 0.15 0.2
5 0.15 0.2
0 0.2 0.2
0.5 0.2 0.2
1 0.2 0.2
1.5 0.2 0.2
2 0.2 0.2
2.5 0.2 0.2
3 0.2 0.2
3.5 0.2 0.2
4 0.2 0.2
4.5 0.2 0.2
5 0.2 0.2
0 0.25 0.2
0.5 0.25 0.2
1 0.25 0.2
1.5 0.25 0.2
2 0.25 0.2
2.5 0.25 0.2
3 0.25 0.2
3.5 0.25 0.2
4 0.25 0.2
4.5 0.25 0.2
5 0.25 0.2
0 0.3 0.2
0.5 0.3 0.2
1 0.3 0.2
1.5 0.3 0.2
2 0.3 0.2
2.5 0.3 0.2
3 0.3 0.2
3.5 0.3 0.2
4 0.3 0.2
4.5 0.3 0.2
5 0.3 0.2
0 0.35 0.2
0.5 0.35 0.2
1 0.35 0.2
1.5 0.35 0.2
2 0.35 0.2
2.5 0.35 0.2
3 0.35 0.2
3.5 0.35 0.2
4 0.35 0.2
4.5 0.35 0.2
5 0.35 0.2
0 0.4 0.2
0.5 0.4 0.2
1 0.4 0.2
1.5 0.4 0.2
2 0.4 0.2
2.5 0.4 0.2
3 0.4 0.2
3.5 0.4 0.2
4 0.4 0.2
4.5 0.4 0.2
5 0.4 0.2
0 0.45 0.2
0.5 0.45 0.2
1 0.45 0.2
1.5 0.45 0.2
2 0.45 0.2
2.5 0.45 0.2
3 0.45 0.2
3.5 0.45 0.2
4 0.45 0.2
4.5 0.45 0.2
5 0.45 0.2
0 0.5 0.2
0.5 0.5 0.2
1 0.5 0.2
1.5 0.5 0.2
2 0.5 0.2
2.5 0.5 0.2
3 0.5 0.2
3.5 0.5 0.2
4 0.5 0.2
4.5 0.5 0.2
5 0.5 0.2
0 0.55 0.2
0.5 0.55 0.2
1 0.55 0.2
1.5 0.55 0.2
2 0.55 0.2
2.5 0.55 0.2
3 0.55 0.2
3.5 0.55 0.2
4 0.55 0.2
4.5 0.55 0.2
5 0.55 0.2
0 0.6 0.2
0.5 0.6 0.2
1 0.6 0.2
1.5 0.6 0.2
2 0.6 0.2
2.5 0.6 0.2
3 0.6 0.2
3.5 0.6 0.2
4 0.6 0.2
4.5 0.6 0.2
5 0.6 0.2
0 0.65 0.2
0.5 0.65 0.2
1 0.65 0.2
1.5 0.65 0.2
2 0.65 0.2
2.5 0.65 0.2
3 0.65 0.2
3.5 0.65 0.2
4 0.65 0.2
4.5 0.65 0.2
5 0.65 0.2
0 0.7 0.2
0.5 0.7 0.2
1 0.7 0.2
1.5 0.7 0.2
2 0.7 0.2
2.5 0.7 0.2
3 0.7 0.2
3.5 0.7 0.2
4 0.7 0.2
4.5 0.7 0.2
5 0.7 0.2
0 0.75 0.2
0.5 0.75 0.2
1 0.75 0.2
1.5 0.75 0.2
2 0.75 0.2
2.5 0.75 0.2
3 0.75 0.2
3.5 0.75 0.2
4 0.75 0.2
4.5 0.75 0.2
5 0.75 0.2
0 0.8 0.2
0.5 0.8 0.2
1 0.8 0.2
1.5 0.8 0.2
2 0.8 0.2
2.5 0.8 0.2
3 0.8 0.2
3.5 0.8 0.2
4 0.8 0.2
4.5 0.8 0.2
5 0.8 0.2
0 0.85 0.2
0.5 0.85 0.2
1 0.85 0.2
1.5 0.85 0.2
2 0.85 0.2
2.5 0.85 0.2
3 0.85 0.2
3.5 0.85 0.2
4 0.85 0.2
4.5 0.85 0.2
5 0.85 0.2
0 0.9 0.2
0.5 0.9 0.2
1 0.9 0.2
1.5 0.9 0.2
2 0.9 0.2
2.5 0.9 0.2
3 0.9 0.2
3.5 0.9 0.2
4 0.9 0.2
4.5 0.9 0.2
5 0.9 0.2
0 0.95 0.2
0.5 0.95 0.2
1 0.95 0.2
1.5 0.95 0.2
2 0.95 0.2
2.5 0.95 0.2
3 0.95 0.2
3.5 0.95 0.2
4 0.95 0.2
4.5 0.95 0.2
5 0.95 0.2
0 1 0.2
0.5 1 0.2
1 1 0.2
1.5 1 0.2
2 1 0.2
2.5 1 0.2
3 1 0.2
3.5 1 0.2
4 1 0.2
4.5 1 0.2
5 1 0.2
0 0 0.3
0.5 0 0.3
1 0 0.3
1.5 0 0.3
2 0 0.3
2.5 0 0.3
3 0 0.3
3.5 0 0.3
4 0 0.3
4.5 0 0.3
5 0 0.3
0 0.05 0.3
0.5 0.05 0.3
1 0.05 0.3
1.5 0.05 0.3
2 0.05 0.3
2.5 0.05 0.3
3 0.05 0.3
3.5 0.05 0.3
4 0.05 0.3
4.5 0.05 0.3
5 0.05 0.3
0 0.1 0.3
0.5 0.1 0.3
1 0.1 0.3
1.5 0.1 0.3
2 0.1 0.3
2.5 0.1 0.3
3 0.1 0.3
3.5 0.1 0.3
4 0.1 0.3
4.5 0.1 0.3
5 0.1 0.3
0 0.15 0.3
0.5 0.15 0.3
1 0.15 0.3
1.5 0.15 0.3
2 0.15 0.3
2.5 0.15 0.3
3 0.15 0.3
3.5 0.15 0.3
4 0.15 0.3
4.5 0.15 0.3
5 0.15 0.3
0 0.2 0.3
0.5 0.2 0.3
1 0.2 0.3
1.5 0.2 0.3
2 0.2 0.3
2.5 0.2 0.3
3 0.2 0.3
3.5 0.2 0.3
4 0.2 0.3
4.5 0.2 0.3
5 0.2 0.3
0 0.25 0.3
0.5 0.25 0.3
1 0.25 0.3
1.5 0.25 0.3
2 0.25 0.3
2.5 0.25 0.3
3 0.25 0.3
3.5 0.25 0.3
4 0.25 0.3
4.5 0.25 0.3
5 0.25 0.3
0 0.3 0.3
0.5 0.3 0.3
1 0.3 0.3
1.5 0.3 0.3
2 0.3 0.3
2.5 0.3 0.3
3 0.3 0.3
3.5 0.3 0.3
4 0.3 0.3
4.5 0.3 0.3
5 0.3 0.3
0 0.35 0.3
0.5 0.35 0.3
1 0.35 0.3
1.5 0.35 0.3
2 0.35 0.3
2.5 0.35 0.3
3 0.35 0.3
3.5 0.35 0.3
4 0.35 0.3
4.5 0.35 0.3
5 0.35 0.3
0 0.4 0.3
0.5 0.4 0.3
1 0.4 0.3
1.5 0.4 0.3
2 0.4 0.3
2.5 0.4 0.3
3 0.4 0.3
3.5 0.4 0.3
4 0.4 0.3
4.5 0.4 0.3
5 0.4 0.3
0 0.45 0.3
0.5 0.45 0.3
1 0.45 0.3
1.5 0.45 0.3
2 0.45 0.3
2.5 0.45 0.3
3 0.45 0.3
3.5 0.45 0.3
4 0.45 0.3
4.5 0.45 0.3
5 0.45 0.3
0 0.5 0.3
0.5 0.5 0.3
1 0.5 0.3
1.5 0.5 0.3
2 0.5 0.3
2.5 0.5 0.3
3 0.5 0.3
3.5 0.5 0.3
4 0.5 0.3
4.5 0.5 0.3
5 0.5 0.3
0 0.55 0.3
0.5 0.55 0.3
1 0.55 0.3
1.5 0.55 0.3
2 0.55 0.3
2.5 0.55 0.3
3 0.55 0.3
3.5 0.55 0.3
4 0.55 0.3
4.5 0.55 0.3
5 0.55 0.3
0 0.6 0.3
0.5 0.6 0.3
1 0.6 0.3
1.5 0.6 0.3
2 0.6 0.3
2.5 0.6 0.3
3 0.6 0.3
3.5 0.6 0.3
4 0.6 0.3
4.5 0.6 0.3
5 0.6 0.3
0 0.65 0.3
0.5 0.65 0.3
1 0.65 0.3
1.5 0.65 0.3
2 0.65 0.3
2.5 0.65 0.3
3 0.65 0.3
3.5 0.65 0.3
4 0.65 0.3
4.5 0.65 0.3
5 0.65 0.3
0 0.7 0.3
0.5 0.7 0.3
1 0.7 0.3
1.5 0.7 0.3
2 0.7 0.3
2.5 0.7 0.3
3 0.7 0.3
3.5 0.7 0.3
4 0.7 0.3
4.5 0.7 0.3
5 0.7 0.3
0 0.75 0.3
0.5 0.75 0.3
1 0.75 0.3
1.5 0.75 0.3
2 0.75 0.3
2.5 0.75 0.3
3 0.75 0.3
3.5 0.75 0.3
4 0.75 0.3
4.5 0.75 0.3
5 0.75 0.3
0 0.8 0.3
0.5 0.8 0.3
1 0.8 0.3
1.5 0.8 0.3
2 0.8 0.3
2.5 0.8 0.3
3 0.8 0.3
3.5 0.8 0.3
4 0.8 0.3
4.5 0.8 0.3
5 0.8 0.3
0 0.85 0.3
0.5 0.85 0.3
1 0.85 0.3
1.5 0.85 0.3
2 0.85 0.3
2.5 0.85 0.3
3 0.85 0.3
3.5 0.85 0.3
4 0.85 0.3
4.5 0.85 0.3
5 0.85 0.3
0 0.9 0.3
0.5 0.9 0.3
1 0.9 0.3
1.5 0.9 0.3
2 0.9 0.3
2.5 0.9 0.3
3 0.9 0.3
3.5 0.9 0.3
4 0.9 0.3
4.5 0.9 0.3
5 0.9 0.3
0 0.95 0.3
0.5 0.95 0.3
1 0.95 0.3
1.5 0.95 0.3
2 0.95 0.3
2.5 0.95 0.3
3 0.95 0.3
3.5 0.95 0.3
4 0.95 0.3
4.5 0.95 0.3
5 0.95 0.3
0 1 0.3
0.5 1 0.3
1 1 0.3
1.5 1 0.3
2 1 0.3
2.5 1 0.3
3 1 0.3
3.5 1 0.3
4 1 0.3
4.5 1 0.3
5 1 0.3
0 0 0.4
[...]
CELL_DATA 2000
SCALARS pressure float 1
LOOKUP_TABLE default
0
0
0.90565
1.01107
0.830366
0.668403
0.510388
0.353386
0.195845
0.0243021
0
0
0.904369
1.00325
0.82971
0.668273
0.510357
0.353381
0.195877
0.0269437
0
0
0.866238
0.998662
0.828792
0.668094
0.510315
0.353377
0.195968
0.0293498
0
0
0.855745
0.98829
0.827714
0.667879
0.510264
0.353372
0.196092
0.0313523
1.64321
1.78213
0.866182
0.97903
0.826515
0.667636
0.510204
0.353367
0.196228
0.0329797
1.63892
1.77088
0.897487
0.972161
0.825309
0.667374
0.510137
0.353361
0.196359
0.0342739
1.63023
1.75429
0.935105
0.967779
0.824174
0.667101
0.510065
0.353352
0.196474
0.0352693
1.61796
1.73571
0.97509
0.965425
0.82316
0.666825
0.50999
0.35334
0.196566
0.0359927
1.60501
1.71722
1.01252
0.964611
0.822288
0.666553
0.509912
0.353325
0.196628
0.0364638
1.59343
1.69994
1.04619
0.964894
0.821557
0.666289
0.509833
0.353306
0.196657
0.0366956
1.58401
1.68437
1.07578
0.965911
0.820952
0.666037
0.509755
0.353283
0.196651
0.0366945
1.57728
1.67069
1.10129
0.967367
0.820456
0.665799
0.509678
0.353257
0.19661
0.0364604
1.57374
1.65892
1.1229
0.96902
0.820046
0.665575
0.509603
0.353229
0.196536
0.035987
1.5735
1.649
1.14083
0.970678
0.819699
0.665368
0.509532
0.353199
0.196433
0.0352615
1.57636
1.64088
1.15537
0.972187
0.819394
0.665177
0.509466
0.353169
0.196307
0.0342641
1.58206
1.63451
1.16676
0.973425
0.819112
0.665003
0.509406
0.353141
0.196166
0.0329681
1.59006
1.62986
1.17523
0.9743
0.818836
0.664845
0.509352
0.353114
0.196023
0.0313391
1.59851
1.62688
1.181
0.974747
0.818553
0.664703
0.509306
0.353092
0.195892
0.0293352
1.60466
1.62562
1.18427
0.974741
0.818263
0.664582
0.509268
0.353075
0.195795
0.026928
1.60771
1.62581
1.18501
0.974309
0.817987
0.664487
0.50924
0.353065
0.195759
0.0242857
0
0
0.914275
1.00708
0.830107
0.668335
0.510372
0.353397
0.19605
0.0288889
0
0
0.911415
1.00037
0.829266
0.668177
0.510336
0.353391
0.19609
0.0324252
0
0
0.874292
0.996124
0.828383
0.667997
0.510294
0.353387
0.196207
0.0349612
0
0
0.887593
0.988433
0.827306
0.667786
0.510244
0.353384
0.196345
0.037009
1.62657
1.80073
0.822827
0.97776
0.826137
0.667552
0.510186
0.35338
0.196489
0.038666
1.62153
1.80686
0.851552
0.968772
0.824963
0.667302
0.510122
0.353375
0.196625
0.0399796
1.61334
1.7791
0.905021
0.964838
0.823891
0.667044
0.510054
0.353367
0.196743
0.0409875
1.60286
1.75208
0.954969
0.963466
0.822955
0.666785
0.509982
0.353357
0.196837
0.0417189
1.59087
1.72846
0.9998
0.963393
0.822163
0.666529
0.509908
0.353342
0.1969
0.0421948
1.5789
1.70802
1.03838
0.964212
0.821505
0.666281
0.509833
0.353324
0.19693
0.0424289
1.56918
1.69031
1.07118
0.965618
0.820966
0.666045
0.509758
0.353303
0.196924
0.0424278
1.56237
1.67509
1.0988
0.967354
0.820526
0.665821
0.509685
0.353278
0.196882
0.0421916
1.55869
1.66217
1.1218
0.96921
0.820164
0.665612
0.509614
0.35325
0.196808
0.0417136
1.55825
1.65132
1.14065
0.971015
0.819857
0.665417
0.509547
0.353221
0.196704
0.0409802
1.56118
1.64236
1.15573
0.972628
0.819586
0.665237
0.509483
0.353191
0.196575
0.0399703
1.56707
1.63502
1.1674
0.97394
0.819331
0.665071
0.509425
0.353162
0.19643
0.0386551
1.57398
1.62924
1.17597
0.974866
0.819075
0.66492
0.509373
0.353135
0.196278
0.0369965
1.58065
1.6252
1.18168
0.975348
0.818809
0.664783
0.509328
0.353113
0.196133
0.0349473
1.58646
1.62318
1.18475
0.975327
0.818519
0.664661
0.50929
0.353095
0.19601
0.0324102
1.59083
1.62392
1.18524
0.974728
0.818178
0.664547
0.509257
0.353084
0.195966
0.0288729
0
0
0.924047
1.00587
0.829994
0.668283
0.51036
0.353419
0.196356
0.0322571
0
0
0.920014
1.00015
0.829151
0.668121
0.510323
0.353414
0.196404
0.0359321
0
0
0.889858
0.997046
0.828311
0.667942
0.510281
0.353411
0.196532
0.0385515
0
0
0.904621
0.991016
0.827306
0.667738
0.510231
0.353408
0.196679
0.0406549
1.61016
1.80133
0.807972
0.980602
0.826178
0.667511
0.510175
0.353406
0.19683
0.0423488
1.60445
1.83632
0.799356
0.969196
0.824982
0.667268
0.510114
0.353401
0.196971
0.0436872
1.59858
1.8185
0.860799
0.962394
0.823838
0.667016
0.510047
0.353395
0.197093
0.0447118
1.59575
1.78292
0.927767
0.960584
0.822855
0.666764
0.509978
0.353385
0.19719
0.045454
1.59438
1.75077
0.982164
0.96109
0.822059
0.666516
0.509907
0.353372
0.197254
0.0459364
1.59263
1.72369
1.02704
0.9625
0.821423
0.666277
0.509835
0.353355
0.197285
0.0461735
1.58971
1.7013
1.0642
0.964395
0.820916
0.66605
0.509763
0.353334
0.197279
0.0461724
1.58579
1.68292
1.09487
0.966525
0.820511
0.665836
0.509692
0.353309
0.197237
0.0459333
1.58196
1.66797
1.12
0.968692
0.820183
0.665635
0.509624
0.353282
0.197161
0.0454488
1.57825
1.65597
1.14031
0.970743
0.81991
0.665449
0.509558
0.353253
0.197055
0.0447047
1.57387
1.64644
1.15636
0.972548
0.819667
0.665276
0.509497
0.353223
0.196923
0.0436783
1.56904
1.63885
1.16853
0.974014
0.819439
0.665117
0.509441
0.353194
0.196772
0.0423382
1.565
1.63249
1.17714
0.975067
0.819209
0.664971
0.50939
0.353167
0.196614
0.0406428
1.56418
1.62735
1.18265
0.97563
0.818961
0.664838
0.509345
0.353144
0.196459
0.038538
1.56817
1.62435
1.18552
0.975636
0.818675
0.664716
0.509307
0.353125
0.196327
0.0359176
1.5738
1.62472
1.18588
0.97502
0.818326
0.664599
0.509274
0.353114
0.196274
0.0322416
0
0
0.927833
1.00613
0.829986
0.668254
0.510352
0.353442
0.19662
0.0343669
0
0
0.923512
1.00072
0.829156
0.668092
0.510315
0.353437
0.196671
0.038071
0
0
0.892695
0.998179
0.828349
0.667916
0.510274
0.353434
0.196802
0.0407214
0
0
0.902454
0.992882
0.827393
0.667716
0.510225
0.353433
0.196954
0.0428517
1.60199
1.81701
0.801718
0.982836
0.826317
0.667495
0.51017
0.353431
0.197109
0.0445668
1.59656
1.85777
0.777999
0.971011
0.82515
0.667258
0.51011
0.353427
0.197254
0.0459213
1.59345
1.84586
0.825501
0.962747
0.823968
0.667011
0.510045
0.353421
0.197379
0.0469576
1.59781
1.80855
0.899757
0.959537
0.822898
0.66676
0.509977
0.353412
0.197477
0.047708
1.60896
1.77046
0.964743
0.959586
0.822028
0.666513
0.509907
0.353399
0.197543
0.0481955
1.62215
1.73702
1.01625
0.961001
0.821351
0.666276
0.509837
0.353383
0.197574
0.048435
1.63156
1.70823
1.05765
0.963031
0.820827
0.666051
0.509766
0.353362
0.197568
0.048434
1.6342
1.68473
1.0914
0.965347
0.82042
0.665839
0.509697
0.353338
0.197526
0.0481924
1.6303
1.66733
1.11883
0.967726
0.820101
0.665643
0.50963
0.353311
0.197449
0.047703
1.61977
1.65553
1.14065
0.970013
0.819847
0.665461
0.509566
0.353282
0.197341
0.0469507
1.60258
1.64749
1.15734
0.972082
0.819639
0.665294
0.509506
0.353253
0.197206
0.0459126
1.5822
1.64103
1.16957
0.973793
0.819452
0.665141
0.509451
0.353223
0.197052
0.0445565
1.56532
1.63516
1.17809
0.97502
0.819254
0.665
0.509401
0.353196
0.19689
0.0428399
1.55744
1.62994
1.18347
0.975686
0.819027
0.66487
0.509357
0.353172
0.196731
0.0407083
1.55904
1.62646
1.18622
0.975743
0.818751
0.664749
0.509319
0.353153
0.196594
0.0380568
1.56471
1.62657
1.1865
0.975142
0.818405
0.664632
0.509286
0.353141
0.196539
0.0343518
0
0
0.928104
1.00645
0.830005
0.668241
0.510349
0.353456
0.196768
0.035375
0
0
0.92319
1.00113
0.829183
0.66808
0.510312
0.353451
0.19682
0.0390863
0
0
0.890897
0.998795
0.828391
0.667905
0.51027
0.353448
0.196952
0.041747
0
0
0.898677
0.99375
0.827458
0.667708
0.510222
0.353447
0.197106
0.0438874
1.59916
1.82762
0.79633
0.983889
0.826406
0.66749
0.510168
0.353446
0.197263
0.0456116
1.59406
1.86984
0.770822
0.972064
0.825262
0.667256
0.510108
0.353443
0.197409
0.0469734
1.59324
1.85915
0.813672
0.963639
0.824094
0.667013
0.510044
0.353437
0.197535
0.0480154
1.60275
1.82154
0.88436
0.960052
0.823013
0.666765
0.509977
0.353428
0.197634
0.0487698
1.62133
1.7811
0.951729
0.95951
0.822091
0.666518
0.509908
0.353416
0.197701
0.0492599
1.64339
1.74398
1.00831
0.960398
0.821341
0.666277
0.509838
0.353399
0.197733
0.0495007
1.66157
1.7112
1.054
0.962118
0.820754
0.666048
0.509768
0.353379
0.197727
0.0494997
1.66929
1.68417
1.09036
0.964367
0.820312
0.665835
0.509699
0.353355
0.197685
0.0492569
1.66529
1.66521
1.11897
0.966895
0.819998
0.66564
0.509633
0.353328
0.197607
0.0487649
1.64949
1.65397
1.14111
0.969435
0.819776
0.665463
0.50957
0.3533
0.197498
0.0480086
1.62327
1.64714
1.15785
0.971732
0.819602
0.6653
0.509511
0.35327
0.197362
0.0469648
1.59375
1.64187
1.1701
0.973603
0.819441
0.66515
0.509456
0.35324
0.197207
0.0456014
1.5693
1.63667
1.17859
0.974938
0.819263
0.665012
0.509407
0.353213
0.197042
0.0438758
1.55631
1.63161
1.18393
0.97567
0.819048
0.664884
0.509363
0.353189
0.196882
0.041734
1.5558
1.62796
1.18662
0.975762
0.81878
0.664765
0.509325
0.35317
0.196744
0.0390722
1.5613
1.62797
1.18686
0.975174
0.818437
0.664648
0.509292
0.353158
0.196688
0.03536
0
0
0.928104
1.00645
0.830005
0.668241
0.510349
0.353456
0.196768
0.035375
0
0
0.92319
1.00113
0.829183
0.66808
0.510312
0.353451
0.19682
0.0390863
0
0
0.890897
0.998795
0.828391
0.667905
0.51027
0.353448
0.196952
0.041747
0
0
0.898677
0.99375
0.827458
0.667708
0.510222
0.353447
0.197106
0.0438874
1.59916
1.82762
0.79633
0.983889
0.826406
0.66749
0.510168
0.353446
0.197263
0.0456116
1.59406
1.86984
0.770822
0.972064
0.825262
0.667256
0.510108
0.353443
0.197409
0.0469734
1.59324
1.85915
0.813672
0.963639
0.824094
0.667013
0.510044
0.353437
0.197535
0.0480154
1.60275
1.82154
0.88436
0.960052
0.823013
0.666765
0.509977
0.353428
0.197634
0.0487698
1.62133
1.7811
0.951729
0.95951
0.822091
0.666518
0.509908
0.353416
0.197701
0.0492599
1.64339
1.74398
1.00831
0.960398
0.821341
0.666277
0.509838
0.353399
0.197733
0.0495007
1.66157
1.7112
1.054
0.962118
0.820754
0.666048
0.509768
0.353379
0.197727
0.0494997
1.66929
1.68417
1.09036
0.964367
0.820312
0.665835
0.509699
0.353355
0.197685
0.0492569
1.66529
1.66521
1.11897
0.966895
0.819998
0.66564
0.509633
0.353328
0.197607
0.0487649
1.64949
1.65397
1.14111
0.969435
0.819776
0.665463
0.50957
0.3533
0.197498
0.0480086
1.62327
1.64714
1.15785
0.971732
0.819602
0.6653
0.509511
0.35327
0.197362
0.0469648
1.59375
1.64187
1.1701
0.973603
0.819441
0.66515
0.509456
0.35324
0.197207
0.0456014
1.5693
1.63667
1.17859
0.974938
0.819263
0.665012
0.509407
0.353213
0.197042
0.0438758
1.55631
1.63161
1.18393
0.97567
0.819048
0.664884
0.509363
0.353189
0.196882
0.041734
1.5558
1.62796
1.18662
0.975762
0.81878
0.664765
0.509325
0.35317
0.196744
0.0390722
1.5613
1.62797
1.18686
0.975174
0.818437
0.664648
0.509292
0.353158
0.196688
0.03536
0
0
0.927833
1.00613
0.829986
0.668254
0.510352
0.353442
0.19662
0.0343669
0
0
0.923512
1.00072
0.829156
0.668092
0.510315
0.353437
0.196671
0.038071
0
0
0.892695
0.998179
0.828349
0.667916
0.510274
0.353434
0.196802
0.0407214
0
0
0.902454
0.992882
0.827393
0.667716
0.510225
0.353433
0.196954
0.0428517
1.60199
1.81701
0.801718
0.982836
0.826317
0.667495
0.51017
0.353431
0.197109
0.0445668
1.59656
1.85777
0.777999
0.971011
0.82515
0.667258
0.51011
0.353427
0.197254
0.0459213
1.59345
1.84586
0.825501
0.962747
0.823968
0.667011
0.510045
0.353421
0.197379
0.0469576
1.59781
1.80855
0.899757
0.959537
0.822898
0.66676
0.509977
0.353412
0.197477
0.047708
1.60896
1.77046
0.964743
0.959586
0.822028
0.666513
0.509907
0.353399
0.197543
0.0481955
1.62215
1.73702
1.01625
0.961001
0.821351
0.666276
0.509837
0.353383
0.197574
0.048435
1.63156
1.70823
1.05765
0.963031
0.820827
0.666051
0.509766
0.353362
0.197568
0.048434
1.6342
1.68473
1.0914
0.965347
0.82042
0.665839
0.509697
0.353338
0.197526
0.0481924
1.6303
1.66733
1.11883
0.967726
0.820101
0.665643
0.50963
0.353311
0.197449
0.047703
1.61977
1.65553
1.14065
0.970013
0.819847
0.665461
0.509566
0.353282
0.197341
0.0469507
1.60258
1.64749
1.15734
0.972082
0.819639
0.665294
0.509506
0.353253
0.197206
0.0459126
1.5822
1.64103
1.16957
0.973793
0.819452
0.665141
0.509451
0.353223
0.197052
0.0445565
1.56532
1.63516
1.17809
0.97502
0.819254
0.665
0.509401
0.353196
0.19689
0.0428399
1.55744
1.62994
1.18347
0.975686
0.819027
0.66487
0.509357
0.353172
0.196731
0.0407083
1.55904
1.62646
1.18622
0.975743
0.818751
0.664749
0.509319
0.353153
0.196594
0.0380568
1.56471
1.62657
1.1865
0.975142
0.818405
0.664632
0.509286
0.353141
0.196539
0.0343518
0
0
0.924047
1.00587
0.829994
0.668283
0.51036
0.353419
0.196356
0.0322571
0
0
0.920014
1.00015
0.829151
0.668121
0.510323
0.353414
0.196404
0.0359321
0
0
0.889858
0.997046
0.828311
0.667942
0.510281
0.353411
0.196532
0.0385515
0
0
0.904621
0.991016
0.827306
0.667738
0.510231
0.353408
0.196679
0.0406549
1.61016
1.80133
0.807972
0.980602
0.826178
0.667511
0.510175
0.353406
0.19683
0.0423488
1.60445
1.83632
0.799356
0.969196
0.824982
0.667268
0.510114
0.353401
0.196971
0.0436872
1.59858
1.8185
0.860799
0.962394
0.823838
0.667016
0.510047
0.353395
0.197093
0.0447118
1.59575
1.78292
0.927767
0.960584
0.822855
0.666764
0.509978
0.353385
0.19719
0.045454
1.59438
1.75077
0.982164
0.96109
0.822059
0.666516
0.509907
0.353372
0.197254
0.0459364
1.59263
1.72369
1.02704
0.9625
0.821423
0.666277
0.509835
0.353355
0.197285
0.0461735
1.58971
1.7013
1.0642
0.964395
0.820916
0.66605
0.509763
0.353334
0.197279
0.0461724
1.58579
1.68292
1.09487
0.966525
0.820511
0.665836
0.509692
0.353309
0.197237
0.0459333
1.58196
1.66797
1.12
0.968692
0.820183
0.665635
0.509624
0.353282
0.197161
0.0454488
1.57825
1.65597
1.14031
0.970743
0.81991
0.665449
0.509558
0.353253
0.197055
0.0447047
1.57387
1.64644
1.15636
0.972548
0.819667
0.665276
0.509497
0.353223
0.196923
0.0436783
1.56904
1.63885
1.16853
0.974014
0.819439
0.665117
0.509441
0.353194
0.196772
0.0423382
1.565
1.63249
1.17714
0.975067
0.819209
0.664971
0.50939
0.353167
0.196614
0.0406428
1.56418
1.62735
1.18265
0.97563
0.818961
0.664838
0.509345
0.353144
0.196459
0.038538
1.56817
1.62435
1.18552
0.975636
0.818675
0.664716
0.509307
0.353125
0.196327
0.0359176
1.5738
1.62472
1.18588
0.97502
0.818326
0.664599
0.509274
0.353114
0.196274
0.0322416
0
0
0.914275
1.00708
0.830107
0.668335
0.510372
0.353397
0.19605
0.0288889
0
0
0.911415
1.00037
0.829266
0.668177
0.510336
0.353391
0.19609
0.0324252
0
0
0.874292
0.996124
0.828383
0.667997
0.510294
0.353387
0.196207
0.0349612
0
0
0.887593
0.988433
0.827306
0.667786
0.510244
0.353384
0.196345
0.037009
1.62657
1.80073
0.822827
0.97776
0.826137
0.667552
0.510186
0.35338
0.196489
0.038666
1.62153
1.80686
0.851552
0.968772
0.824963
0.667302
0.510122
0.353375
0.196625
0.0399796
1.61334
1.7791
0.905021
0.964838
0.823891
0.667044
0.510054
0.353367
0.196743
0.0409875
1.60286
1.75208
0.954969
0.963466
0.822955
0.666785
0.509982
0.353357
0.196837
0.0417189
1.59087
1.72846
0.9998
0.963393
0.822163
0.666529
0.509908
0.353342
0.1969
0.0421948
1.5789
1.70802
1.03838
0.964212
0.821505
0.666281
0.509833
0.353324
0.19693
0.0424289
1.56918
1.69031
1.07118
0.965618
0.820966
0.666045
0.509758
0.353303
0.196924
0.0424278
1.56237
1.67509
1.0988
0.967354
0.820526
0.665821
0.509685
0.353278
0.196882
0.0421916
1.55869
1.66217
1.1218
0.96921
0.820164
0.665612
0.509614
0.35325
0.196808
0.0417136
1.55825
1.65132
1.14065
0.971015
0.819857
0.665417
0.509547
0.353221
0.196704
0.0409802
1.56118
1.64236
1.15573
0.972628
0.819586
0.665237
0.509483
0.353191
0.196575
0.0399703
1.56707
1.63502
1.1674
0.97394
0.819331
0.665071
0.509425
0.353162
0.19643
0.0386551
1.57398
1.62924
1.17597
0.974866
0.819075
0.66492
0.509373
0.353135
0.196278
0.0369965
1.58065
1.6252
1.18168
0.975348
0.818809
0.664783
0.509328
0.353113
0.196133
0.0349473
1.58646
1.62318
1.18475
0.975327
0.818519
0.664661
0.50929
0.353095
0.19601
0.0324102
1.59083
1.62392
1.18524
0.974728
0.818178
0.664547
0.509257
0.353084
0.195966
0.0288729
0
0
0.90565
1.01107
0.830366
0.668403
0.510388
0.353386
0.195845
0.0243021
0
0
0.904369
1.00325
0.82971
0.668273
0.510357
0.353381
0.195877
0.0269437
0
0
0.866238
0.998662
0.828792
0.668094
0.510315
0.353377
0.195968
0.0293498
0
0
0.855745
0.98829
0.827714
0.667879
0.510264
0.353372
0.196092
0.0313523
1.64321
1.78213
0.866182
0.97903
0.826515
0.667636
0.510204
0.353367
0.196228
0.0329797
1.63892
1.77088
0.897487
0.972161
0.825309
0.667374
0.510137
0.353361
0.196359
0.0342739
1.63023
1.75429
0.935105
0.967779
0.824174
0.667101
0.510065
0.353352
0.196474
0.0352693
1.61796
1.73571
0.97509
0.965425
0.82316
0.666825
0.50999
0.35334
0.196566
0.0359927
1.60501
1.71722
1.01252
0.964611
0.822288
0.666553
0.509912
0.353325
0.196628
0.0364638
1.59343
1.69994
1.04619
0.964894
0.821557
0.666289
0.509833
0.353306
0.196657
0.0366956
1.58401
1.68437
1.07578
0.965911
0.820952
0.666037
0.509755
0.353283
0.196651
0.0366945
1.57728
1.67069
1.10129
0.967367
0.820456
0.665799
0.509678
0.353257
0.19661
0.0364604
1.57374
1.65892
1.1229
0.96902
0.820046
0.665575
0.509603
0.353229
0.196536
0.035987
1.5735
1.649
1.14083
0.970678
0.819699
0.665368
0.509532
0.353199
0.196433
0.0352615
1.57636
1.64088
1.15537
0.972187
0.819394
0.665177
0.509466
0.353169
0.196307
0.0342641
1.58206
1.63451
1.16676
0.973425
0.819112
0.665003
0.509406
0.353141
0.196166
0.0329681
1.59006
1.62986
1.17523
0.9743
0.818836
0.664845
0.509352
0.353114
0.196023
0.0313391
1.59851
1.62688
1.181
0.974747
0.818553
0.664703
0.509306
0.353092
0.195892
0.0293352
1.60466
1.62562
1.18427
0.974741
0.818263
0.664582
0.509268
0.353075
0.195795
0.026928
1.60771
1.62581
1.18501
0.974309
0.817987
0.664487
0.50924
0.353065
0.195759
0.0242857

VECTORS velocity float
0 0 0
0 0 0
0.801403 -0.0329267 -0.000315156
0.691339 -0.00329342 0.000688028
0.728138 -0.000772059 8.3143e-05
0.737061 -0.000170285 1.69706e-05
0.739046 -3.85122e-05 3.62266e-06
0.739522 -9.95481e-06 -1.79222e-06
0.739954 -1.53146e-05 -3.4208e-05
0.754243 -0.000978838 -0.000835269
0 0 0
0 0 0
-0.149775 -0.0978443 -0.000101745
0.701377 -0.0128928 0.000536011
0.770698 -0.00248764 9.86301e-05
0.7815 -0.000536835 2.05296e-05
0.78378 -0.000121188 4.3758e-06
0.784322 -3.12809e-05 -1.72097e-06
0.784853 -5.31105e-05 -3.68141e-05
0.789354 -0.00188256 -0.000968596
0 0 0
0 0 0
0.820384 -0.165445 0.00117302
0.733382 -0.0227036 0.000459862
0.774238 -0.00428518 8.66732e-05
0.784131 -0.000921602 1.97009e-05
0.786323 -0.000208054 4.28277e-06
0.786846 -5.34253e-05 -1.82473e-06
0.787301 -8.98912e-05 -3.90496e-05
0.791088 -0.00165702 -0.000990649
0 0 0
0 0 0
-0.135023 -0.23489 0.000721263
0.71854 -0.0311631 0.000136713
0.775122 -0.00594854 7.47355e-05
0.784487 -0.00128367 1.8098e-05
0.786507 -0.000290194 3.96717e-06
0.786988 -7.38426e-05 -1.97812e-06
0.787364 -0.000110865 -4.05618e-05
0.791248 -0.0013675 -0.00100113
0.436996 -0.0184946 -0.0400635
0.880767 0.0055907 -0.0229514
0.827967 -0.263147 0.011112
0.743585 -0.039225 0.000822307
0.776947 -0.00743861 8.12164e-05
0.784796 -0.0016101 1.62398e-05
0.786577 -0.000364697 3.5138e-06
0.787003 -9.17234e-05 -2.15023e-06
0.787311 -0.000118343 -4.14202e-05
0.791319 -0.00110415 -0.00100706
0.507508 -0.0496918 -0.0470397
0.982725 0.00996711 -0.0201699
0.922287 -0.246581 0.0127114
0.761385 -0.0441445 0.00111868
0.778931 -0.00866083 7.96862e-05
0.785159 -0.00189113 1.38056e-05
0.786655 -0.000429533 2.94187e-06
0.787016 -0.000106593 -2.33923e-06
0.787267 -0.000115423 -4.19708e-05
0.791374 -0.000868041 -0.00101071
0.552294 -0.068318 -0.0535237
0.983491 0.00638676 -0.0161365
0.928552 -0.22352 0.00770777
0.773317 -0.0467673 0.000811642
0.780992 -0.00959609 6.19532e-05
0.78557 -0.0021196 1.07675e-05
0.786745 -0.000483026 2.27982e-06
0.787032 -0.00011813 -2.53715e-06
0.787234 -0.000104534 -4.23337e-05
0.791418 -0.000654092 -0.00101299
0.590066 -0.0742289 -0.0595915
0.977833 0.001918 -0.013782
0.926715 -0.199508 0.00433578
0.783283 -0.0475972 0.000514105
0.783129 -0.0102337 4.29803e-05
0.786016 -0.00229011 7.53887e-06
0.786844 -0.000523837 1.55855e-06
0.787052 -0.000126139 -2.73832e-06
0.787212 -8.76665e-05 -4.25763e-05
0.791451 -0.00045706 -0.0010144
0.620784 -0.0692779 -0.0648983
0.972667 -0.00156354 -0.0125969
0.924515 -0.176264 0.00237311
0.792012 -0.0470105 0.000303387
0.785276 -0.010574 2.48258e-05
0.786485 -0.00239916 4.25399e-06
0.786949 -0.000550993 8.0306e-07
0.787074 -0.000130547 -2.93786e-06
0.7872 -6.65003e-05 -4.27363e-05
0.791473 -0.000271876 -0.00101522
0.644245 -0.0555874 -0.0692034
0.968144 -0.00346241 -0.012041
0.922465 -0.154415 0.00113035
0.799612 -0.0453053 0.000155437
0.78737 -0.0106276 8.68907e-06
0.786963 -0.00244517 1.03212e-06
0.787058 -0.0005639 3.62285e-08