# vtk DataFile Version 2.0
TestTestTest
ASCII

DATASET STRUCTURED_GRID
DIMENSIONS 11 21 11
POINTS 2541 float
0 0 0
0.5 0 0
1 0 0
1.5 0 0
2 0 0
2.5 0 0
3 0 0
3.5 0 0
4 0 0
4.5 0 0
5 0 0
0 0.05 0
0.5 0.05 0
1 0.05 0
1.5 0.05 0
2 0.05 0
2.5 0.05 0
3 0.05 0
3.5 0.05 0
4 0.05 0
4.5 0.05 0
5 0.05 0
0 0.1 0
0.5 0.1 0
1 0.1 0
1.5 0.1 0
2 0.1 0
2.5 0.1 0
3 0.1 0
3.5 0.1 0
4 0.1 0
4.5 0.1 0
5 0.1 0
0 0.15 0
0.5 0.15 0
1 0.15 0
1.5 0.15 0
2 0.15 0
2.5 0.15 0
3 0.15 0
3.5 0.15 0
4 0.15 0
4.5 0.15 0
5 0.15 0
0 0.2 0
0.5 0.2 0
1 0.2 0
1.5 0.2 0
2 0.2 0
2.5 0.2 0
3 0.2 0
3.5 0.2 0
4 0.2 0
4.5 0.2 0
5 0.2 0
0 0.25 0
0.5 0.25 0
1 0.25 0
1.5 0.25 0
2 0.25 0
2.5 0.25 0
3 0.25 0
3.5 0.25 0
4 0.25 0
4.5 0.25 0
5 0.25 0
0 0.3 0
0.5 0.3 0
1 0.3 0
1.5 0.3 0
2 0.3 0
2.5 0.3 0
3 0.3 0
3.5 0.3 0
4 0.3 0
4.5 0.3 0
5 0.3 0
0 0.35 0
0.5 0.35 0
1 0.35 0
1.5 0.35 0
2 0.35 0
2.5 0.35 0
3 0.35 0
3.5 0.35 0
4 0.35 0
4.5 0.35 0
5 0.35 0
0 0.4 0
0.5 0.4 0
1 0.4 0
1.5 0.4 0
2 0.4 0
2.5 0.4 0
3 0.4 0
3.5 0.4 0
4 0.4 0
4.5 0.4 0
5 0.4 0
0 0.45 0
0.5 0.45 0
1 0.45 0
1.5 0.45 0
2 0.45 0
2.5 0.45 0
3 0.45 0
3.5 0.45 0
4 0.45 0
4.5 0.45 0
5 0.45 0
0 0.5 0
0.5 0.5 0
1 0.5 0
1.5 0.5 0
2 0.5 0
2.5 0.5 0
3 0.5 0
3.5 0.5 0
4 0.5 0
4.5 0.5 0
5 0.5 0
0 0.55 0
0.5 0.55 0
1 0.55 0
1.5 0.55 0
2 0.55 0
2.5 0.55 0
3 0.55 0
3.5 0.55 0
4 0.55 0
4.5 0.55 0
5 0.55 0
0 0.6 0
0.5 0.6 0
1 0.6 0
1.5 0.6 0
2 0.6 0
2.5 0.6 0
3 0.6 0
3.5 0.6 0
4 0.6 0
4.5 0.6 0
5 0.6 0
0 0.65 0
0.5 0.65 0
1 0.65 0
1.5 0.65 0
2 0.65 0
2.5 0.65 0
3 0.65 0
3.5 0.65 0
4 0.65 0
4.5 0.65 0
5 0.65 0
0 0.7 0
0.5 0.7 0
1 0.7 0
1.5 0.7 0
2 0.7 0
2.5 0.7 0
3 0.7 0
3.5 0.7 0
4 0.7 0
4.5 0.7 0
5 0.7 0
0 0.75 0
0.5 0.75 0
1 0.75 0
1.5 0.75 0
2 0.75 0
2.5 0.75 0
3 0.75 0
3.5 0.75 0
4 0.75 0
4.5 0.75 0
5 0.75 0
0 0.8 0
0.5 0.8 0
1 0.8 0
1.5 0.8 0
2 0.8 0
2.5 0.8 0
3 0.8 0
3.5 0.8 0
4 0.8 0
4.5 0.8 0
5 0.8 0
0 0.85 0
0.5 0.85 0
1 0.85 0
1.5 0.85 0
2 0.85 0
2.5 0.85 0
3 0.85 0
3.5 0.85 0
4 0.85 0
4.5 0.85 0
5 0.85 0
0 0.9 0
0.5 0.9 0
1 0.9 0
1.5 0.9 0
2 0.9 0
2.5 0.9 0
3 0.9 0
3.5 0.9 0
4 0.9 0
4.5 0.9 0
5 0.9 0
0 0.95 0
0.5 0.95 0
1 0.95 0
1.5 0.95 0
2 0.95 0
2.5 0.95 0
3 0.95 0
3.5 0.95 0
4 0.95 0
4.5 0.95 0
5 0.95 0
0 1 0
0.5 1 0
1 1 0
1.5 1 0
2 1 0
2.5 1 0
3 1 0
3.5 1 0
4 1 0
4.5 1 0
5 1 0
0 0 0.1
0.5 0 0.1
1 0 0.1
1.5 0 0.1
2 0 0.1
2.5 0 0.1
3 0 0.1
3.5 0 0.1
4 0 0.1
4.5 0 0.1
5 0 0.1
0 0.05 0.1
0.5 0.05 0.1
1 0.05 0.1
1.5 0.05 0.1
2 0.05 0.1
2.5 0.05 0.1
3 0.05 0.1
3.5 0.05 0.1
4 0.05 0.1
4.5 0.05 0.1
5 0.05 0.1
0 0.1 0.1
0.5 0.1 0.1
1 0.1 0.1
1.5 0.1 0.1
2 0.1 0.1
2.5 0.1 0.1
3 0.1 0.1
3.5 0.1 0.1
4 0.1 0.1
4.5 0.1 0.1
5 0.1 0.1
0 0.15 0.1
0.5 0.15 0.1
1 0.15 0.1
1.5 0.15 0.1
2 0.15 0.1
2.5 0.15 0.1
3 0.15 0.1
3.5 0.15 0.1
4 0.15 0.1
4.5 0.15 0.1
5 0.15 0.1
0 0.2 0.1
0.5 0.2 0.1
1 0.2 0.1
1.5 0.2 0.1
2 0.2 0.1
2.5 0.2 0.1
3 0.2 0.1
3.5 0.2 0.1
4 0.2 0.1
4.5 0.2 0.1
5 0.2 0.1
0 0.25 0.1
0.5 0.25 0.1
1 0.25 0.1
1.5 0.25 0.1
2 0.25 0.1
2.5 0.25 0.1
3 0.25 0.1
3.5 0.25 0.1
4 0.25 0.1
4.5 0.25 0.1
5 0.25 0.1
0 0.3 0.1
0.5 0.3 0.1
1 0.3 0.1
1.5 0.3 0.1
2 0.3 0.1
2.5 0.3 0.1
3 0.3 0.1
3.5 0.3 0.1
4 0.3 0.1
4.5 0.3 0.1
5 0.3 0.1
0 0.35 0.1
0.5 0.35 0.1
1 0.35 0.1
1.5 0.35 0.1
2 0.35 0.1
2.5 0.35 0.1
3 0.35 0.1
3.5 0.35 0.1
4 0.35 0.1
4.5 0.35 0.1
5 0.35 0.1
0 0.4 0.1
0.5 0.4 0.1
1 0.4 0.1
1.5 0.4 0.1
2 0.4 0.1
2.5 0.4 0.1
3 0.4 0.1
3.5 0.4 0.1
4 0.4 0.1
4.5 0.4 0.1
5 0.4 0.1
0 0.45 0.1
0.5 0.45 0.1
1 0.45 0.1
1.5 0.45 0.1
2 0.45 0.1
2.5 0.45 0.1
3 0.45 0.1
3.5 0.45 0.1
4 0.45 0.1
4.5 0.45 0.1
5 0.45 0.1
0 0.5 0.1
0.5 0.5 0.1
1 0.5 0.1
1.5 0.5 0.1
2 0.5 0.1
2.5 0.5 0.1
3 0.5 0.1
3.5 0.5 0.1
4 0.5 0.1
4.5 0.5 0.1
5 0.5 0.1
0 0.55 0.1
0.5 0.55 0.1
1 0.55 0.1
1.5 0.55 0.1
2 0.55 0.1
2.5 0.55 0.1
3 0.55 0.1
3.5 0.55 0.1
4 0.55 0.1
4.5 0.55 0.1
5 0.55 0.1
0 0.6 0.1
0.5 0.6 0.1
1 0.6 0.1
1.5 0.6 0.1
2 0.6 0.1
2.5 0.6 0.1
3 0.6 0.1
3.5 0.6 0.1
4 0.6 0.1
4.5 0.6 0.1
5 0.6 0.1
0 0.65 0.1
0.5 0.65 0.1
1 0.65 0.1
1.5 0.65 0.1
2 0.65 0.1
2.5 0.65 0.1
3 0.65 0.1
3.5 0.65 0.1
4 0.65 0.1
4.5 0.65 0.1
5 0.65 0.1
0 0.7 0.1
0.5 0.7 0.1
1 0.7 0.1
1.5 0.7 0.1
2 0.7 0.1
2.5 0.7 0.1
3 0.7 0.1
3.5 0.7 0.1
4 0.7 0.1
4.5 0.7 0.1
5 0.7 0.1
0 0.75 0.1
0.5 0.75 0.1
1 0.75 0.1
1.5 0.75 0.1
2 0.75 0.1
2.5 0.75 0.1
3 0.75 0.1
3.5 0.75 0.1
4 0.75 0.1
4.5 0.75 0.1
5 0.75 0.1
0 0.8 0.1
0.5 0.8 0.1
1 0.8 0.1
1.5 0.8 0.1
2 0.8 0.1
2.5 0.8 0.1
3 0.8 0.1
3.5 0.8 0.1
4 0.8 0.1
4.5 0.8 0.1
5 0.8 0.1
0 0.85 0.1
0.5 0.85 0.1
1 0.85 0.1
1.5 0.85 0.1
2 0.85 0.1
2.5 0.85 0.1
3 0.85 0.1
3.5 0.85 0.1
4 0.85 0.1
4.5 0.85 0.1
5 0.85 0.1
0 0.9 0.1
0.5 0.9 0.1
1 0.9 0.1
1.5 0.9 0.1
2 0.9 0.1
2.5 0.9 0.1
3 0.9 0.1
3.5 0.9 0.1
4 0.9 0.1
4.5 0.9 0.1
5 0.9 0.1
0 0.95 0.1
0.5 0.95 0.1
1 0.95 0.1
1.5 0.95 0.1
2 0.95 0.1
2.5 0.95 0.1
3 0.95 0.1
3.5 0.95 0.1
4 0.95 0.1
4.5 0.95 0.1
5 0.95 0.1
0 1 0.1
0.5 1 0.1
1 1 0.1
1.5 1 0.1
2 1 0.1
2.5 1 0.1
3 1 0.1
3.5 1 0.1
4 1 0.1
4.5 1 0.1
5 1 0.1
0 0 0.2
0.5 0 0.2
1 0 0.2
1.5 0 0.2
2 0 0.2
2.5 0 0.2
3 0 0.2
3.5 0 0.2
4 0 0.2
4.5 0 0.2
5 0 0.2
0 0.05 0.2
0.5 0.05 0.2
1 0.05 0.2
1.5 0.05 0.2
2 0.05 0.2
2.5 0.05 0.2
3 0.05 0.2
3.5 0.05 0.2
4 0.05 0.2
4.5 0.05 0.2
5 0.05 0.2
0 0.1 0.2
0.5 0.1 0.2
1 0.1 0.2
1.5 0.1 0.2
2 0.1 0.2
2.5 0.1 0.2
3 0.1 0.2
3.5 0.1 0.2
4 0.1 0.2
4.5 0.1 0.2
5 0.1 0.2
0 0.15 0.2
0.5 0.15 0.2
1 0.15 0.2
1.5 0.15 0.2
2 0.15 0.2
2.5 0.15 0.2
3 0.15 0.2
3.5 0.15 0.2
4 0.15 0.2
4.5 0.15 0.2
5 0.15 0.2
0 0.2 0.2
0.5 0.2 0.2
1 0.2 0.2
1.5 0.2 0.2
2 0.2 0.2
2.5 0.2 0.2
3 0.2 0.2
3.5 0.2 0.2
4 0.2 0.2
4.5 0.2 0.2
5 0.2 0.2
0 0.25 0.2
0.5 0.25 0.2
1 0.25 0.2
1.5 0.25 0.2
2 0.25 0.2
2.5 0.25 0.2
3 0.25 0.2
3.5 0.25 0.2
4 0.25 0.2
4.5 0.25 0.2
5 0.25 0.2
0 0.3 0.2
0.5 0.3 0.2
1 0.3 0.2
1.5 0.3 0.2
2 0.3 0.2
2.5 0.3 0.2
3 0.3 0.2
3.5 0.3 0.2
4 0.3 0.2
4.5 0.3 0.2
5 0.3 0.2
0 0.35 0.2
0.5 0.35 0.2
1 0.35 0.2
1.5 0.35 0.2
2 0.35 0.2
2.5 0.35 0.2
3 0.35 0.2
3.5 0.35 0.2
4 0.35 0.2
4.5 0.35 0.2
5 0.35 0.2
0 0.4 0.2
0.5 0.4 0.2
1 0.4 0.2
1.5 0.4 0.2
2 0.4 0.2
2.5 0.4 0.2
3 0.4 0.2
3.5 0.4 0.2
4 0.4 0.2
4.5 0.4 0.2
5 0.4 0.2
0 0.45 0.2
0.5 0.45 0.2
1 0.45 0.2
1.5 0.45 0.2
2 0.45 0.2
2.5 0.45 0.2
3 0.45 0.2
3.5 0.45 0.2
4 0.45 0.2
4.5 0.45 0.2
5 0.45 0.2
0 0.5 0.2
0.5 0.5 0.2
1 0.5 0.2
1.5 0.5 0.2
2 0.5 0.2
2.5 0.5 0.2
3 0.5 0.2
3.5 0.5 0.2
4 0.5 0.2
4.5 0.5 0.2
5 0.5 0.2
0 0.55 0.2
0.5 0.55 0.2
1 0.55 0.2
1.5 0.55 0.2
2 0.55 0.2
2.5 0.55 0.2
3 0.55 0.2
3.5 0.55 0.2
4 0.55 0.2
4.5 0.55 0.2
5 0.55 0.2
0 0.6 0.2
0.5 0.6 0.2
1 0.6 0.2
1.5 0.6 0.2
2 0.6 0.2
2.5 0.6 0.2
3 0.6 0.2
3.5 0.6 0.2
4 0.6 0.2
4.5 0.6 0.2
5 0.6 0.2
0 0.65 0.2
0.5 0.65 0.2
1 0.65 0.2
1.5 0.65 0.2
2 0.65 0.2
2.5 0.65 0.2
3 0.65 0.2
3.5 0.65 0.2
4 0.65 0.2
4.5 0.65 0.2
5 0.65 0.2
0 0.7 0.2
0.5 0.7 0.2
1 0.7 0.2
1.5 0.7 0.2
2 0.7 0.2
2.5 0.7 0.2
3 0.7 0.2
3.5 0.7 0.2
4 0.7 0.2
4.5 0.7 0.2
5 0.7 0.2
0 0.75 0.2
0.5 0.75 0.2
1 0.75 0.2
1.5 0.75 0.2
2 0.75 0.2
2.5 0.75 0.2
3 0.75 0.2
3.5 0.75 0.2
4 0.75 0.2
4.5 0.75 0.2
5 0.75 0.2
0 0.8 0.2
0.5 0.8 0.2
1 0.8 0.2
1.5 0.8 0.2
2 0.8 0.2
2.5 0.8 0.2
3 0.8 0.2
3.5 0.8 0.2
4 0.8 0.2
4.5 0.8 0.2
5 0.8 0.2
0 0.85 0.2
0.5 0.85 0.2
1 0.85 0.2
1.5 0.85 0.2
2 0.85 0.2
2.5 0.85 0.2
3 0.85 0.2
3.5 0.85 0.2
4 0.85 0.2
4.5 0.85 0.2
5 0.85 0.2
0 0.9 0.2
0.5 0.9 0.2
1 0.9 0.2
1.5 0.9 0.2
2 0.9 0.2
2.5 0.9 0.2
3 0.9 0.2
3.5 0.9 0.2
4 0.9 0.2
4.5 0.9 0.2
5 0.9 0.2
0 0.95 0.2
0.5 0.95 0.2
1 0.95 0.2
1.5 0.95 0.2
2 0.95 0.2
2.5 0.95 0.2
3 0.95 0.2
3.5 0.95 0.2
4 0.95 0.2
4.5 0.95 0.2
5 0.95 0.2
0 1 0.2
0.5 1 0.2
1 1 0.2
1.5 1 0.2
2 1 0.2
2.5 1 0.2
3 1 0.2
3.5 1 0.2
4 1 0.2
4.5 1 0.2
5 1 0.2
0 0 0.3
0.5 0 0.3
1 0 0.3
1.5 0 0.3
2 0 0.3
2.5 0 0.3
3 0 0.3
3.5 0 0.3
4 0 0.3
4.5 0 0.3
5 0 0.3
0 0.05 0.3
0.5 0.05 0.3
1 0.05 0.3
1.5 0.05 0.3
2 0.05 0.3
2.5 0.05 0.3
3 0.05 0.3
3.5 0.05 0.3
4 0.05 0.3
4.5 0.05 0.3
5 0.05 0.3
0 0.1 0.3
0.5 0.1 0.3
1 0.1 0.3
1.5 0.1 0.3
2 0.1 0.3
2.5 0.1 0.3
3 0.1 0.3
3.5 0.1 0.3
4 0.1 0.3
4.5 0.1 0.3
5 0.1 0.3
0 0.15 0.3
0.5 0.15 0.3
1 0.15 0.3
1.5 0.15 0.3
2 0.15 0.3
2.5 0.15 0.3
3 0.15 0.3
3.5 0.15 0.3
4 0.15 0.3
4.5 0.15 0.3
5 0.15 0.3
0 0.2 0.3
0.5 0.2 0.3
1 0.2 0.3
1.5 0.2 0.3
2 0.2 0.3
2.5 0.2 0.3
3 0.2 0.3
3.5 0.2 0.3
4 0.2 0.3
4.5 0.2 0.3
5 0.2 0.3
0 0.25 0.3
0.5 0.25 0.3
1 0.25 0.3
1.5 0.25 0.3
2 0.25 0.3
2.5 0.25 0.3
3 0.25 0.3
3.5 0.25 0.3
4 0.25 0.3
4.5 0.25 0.3
5 0.25 0.3
0 0.3 0.3
0.5 0.3 0.3
1 0.3 0.3
1.5 0.3 0.3
2 0.3 0.3
2.5 0.3 0.3
3 0.3 0.3
3.5 0.3 0.3
4 0.3 0.3
4.5 0.3 0.3
5 0.3 0.3
0 0.35 0.3
0.5 0.35 0.3
1 0.35 0.3
1.5 0.35 0.3
2 0.35 0.3
2.5 0.35 0.3
3 0.35 0.3
3.5 0.35 0.3
4 0.35 0.3
4.5 0.35 0.3
5 0.35 0.3
0 0.4 0.3
0.5 0.4 0.3
1 0.4 0.3
1.5 0.4 0.3
2 0.4 0.3
2.5 0.4 0.3
3 0.4 0.3
3.5 0.4 0.3
4 0.4 0.3
4.5 0.4 0.3
5 0.4 0.3
0 0.45 0.3
0.5 0.45 0.3
1 0.45 0.3
1.5 0.45 0.3
2 0.45 0.3
2.5 0.45 0.3
3 0.45 0.3
3.5 0.45 0.3
4 0.45 0.3
4.5 0.45 0.3
5 0.45 0.3
0 0.5 0.3
0.5 0.5 0.3
1 0.5 0.3
1.5 0.5 0.3
2 0.5 0.3
2.5 0.5 0.3
3 0.5 0.3
3.5 0.5 0.3
4 0.5 0.3
4.5 0.5 0.3
5 0.5 0.3
0 0.55 0.3
0.5 0.55 0.3
1 0.55 0.3
1.5 0.55 0.3
2 0.55 0.3
2.5 0.55 0.3
3 0.55 0.3
3.5 0.55 0.3
4 0.55 0.3
4.5 0.55 0.3
5 0.55 0.3
0 0.6 0.3
0.5 0.6 0.3
1 0.6 0.3
1.5 0.6 0.3
2 0.6 0.3
2.5 0.6 0.3
3 0.6 0.3
3.5 0.6 0.3
4 0.6 0.3
4.5 0.6 0.3
5 0.6 0.3
0 0.65 0.3
0.5 0.65 0.3
1 0.65 0.3
1.5 0.65 0.3
2 0.65 0.3
2.5 0.65 0.3
3 0.65 0.3
3.5 0.65 0.3
4 0.65 0.3
4.5 0.65 0.3
5 0.65 0.3
0 0.7 0.3
0.5 0.7 0.3
1 0.7 0.3
1.5 0.7 0.3
2 0.7 0.3
2.5 0.7 0.3
3 0.7 0.3
3.5 0.7 0.3
4 0.7 0.3
4.5 0.7 0.3
5 0.7 0.3
0 0.75 0.3
0.5 0.75 0.3
1 0.75 0.3
1.5 0.75 0.3
2 0.75 0.3
2.5 0.75 0.3
3 0.75 0.3
3.5 0.75 0.3
4 0.75 0.3
4.5 0.75 0.3
5 0.75 0.3
0 0.8 0.3
0.5 0.8 0.3
1 0.8 0.3
1.5 0.8 0.3
2 0.8 0.3
2.5 0.8 0.3
3 0.8 0.3
3.5 0.8 0.3
4 0.8 0.3
4.5 0.8 0.3
5 0.8 0.3
0 0.85 0.3
0.5 0.85 0.3
1 0.85 0.3
1.5 0.85 0.3
2 0.85 0.3
2.5 0.85 0.3
3 0.85 0.3
3.5 0.85 0.3
4 0.85 0.3
4.5 0.85 0.3
5 0.85 0.3
0 0.9 0.3
0.5 0.9 0.3
1 0.9 0.3
1.5 0.9 0.3
2 0.9 0.3
2.5 0.9 0.3
3 0.9 0.3
3.5 0.9 0.3
4 0.9 0.3
4.5 0.9 0.3
5 0.9 0.3
0 0.95 0.3
0.5 0.95 0.3
1 0.95 0.3
1.5 0.95 0.3
2 0.95 0.3
2.5 0.95 0.3
3 0.95 0.3
3.5 0.95 0.3
4 0.95 0.3
4.5 0.95 0.3
5 0.95 0.3
0 1 0.3
0.5 1 0.3
1 1 0.3
1.5 1 0.3
2 1 0.3
2.5 1 0.3
3 1 0.3
3.5 1 0.3
4 1 0.3
4.5 1 0.3
5 1 0.3
0 0 0.4
[...]
CELL_DATA 2000
SCALARS pressure float 1
LOOKUP_TABLE default
0
0
0.841498
0.909711
0.743719
0.596376
0.45494
0.31508
0.174964
0.0232808
0
0
0.838302
0.903123
0.743124
0.59625
0.454911
0.315075
0.174948
0.0250438
0
0
0.808547
0.899325
0.74219
0.596046
0.454863
0.315068
0.175003
0.0269619
0
0
0.794902
0.890572
0.740961
0.595773
0.454798
0.315059
0.1751
0.0286409
1.21135
1.35072
0.79642
0.881977
0.73946
0.595445
0.45472
0.315049
0.175212
0.0300018
1.20981
1.35172
0.810473
0.873784
0.737804
0.595075
0.45463
0.315035
0.175322
0.0310791
1.20475
1.35129
0.829554
0.866957
0.736104
0.594678
0.454531
0.315019
0.17542
0.0319045
1.19685
1.34864
0.854296
0.861765
0.734442
0.594263
0.454426
0.315
0.175497
0.0325027
1.18846
1.34377
0.879819
0.858157
0.73289
0.593843
0.454316
0.314977
0.175548
0.0328915
1.18117
1.3378
0.903527
0.855768
0.731475
0.593425
0.454204
0.31495
0.175571
0.0330823
1.17554
1.33155
0.924812
0.854279
0.730202
0.593018
0.454091
0.314921
0.175564
0.033081
1.17189
1.3256
0.943494
0.853431
0.729065
0.592627
0.453981
0.314888
0.175526
0.0328875
1.17058
1.32032
0.959538
0.853007
0.728053
0.592258
0.453874
0.314855
0.17546
0.0324962
1.17165
1.31588
0.972997
0.852826
0.727156
0.591916
0.453773
0.31482
0.17537
0.0318956
1.17498
1.31235
0.983963
0.852742
0.72636
0.591602
0.45368
0.314786
0.175259
0.0310679
1.18042
1.30967
0.992547
0.852638
0.725652
0.591321
0.453596
0.314755
0.175138
0.0299886
1.18753
1.30774
0.998875
0.852426
0.725025
0.591075
0.453523
0.314726
0.175017
0.028626
1.19475
1.30629
1.0031
0.852062
0.724475
0.590868
0.453463
0.314703
0.174911
0.0269455
1.19954
1.30533
1.00543
0.85159
0.724031
0.590709
0.453418
0.314687
0.17485
0.0250262
1.20106
1.305
1.00578
0.851046
0.723722
0.59061
0.453391
0.314677
0.174863
0.0232627
0
0
0.850205
0.908725
0.743886
0.596368
0.454936
0.31509
0.175125
0.0269488
0
0
0.844943
0.90252
0.742997
0.596208
0.454901
0.315082
0.175023
0.029839
0
0
0.815408
0.89863
0.74196
0.595984
0.454849
0.315072
0.175128
0.0321124
0
0
0.818281
0.892258
0.740646
0.595706
0.454784
0.315064
0.175261
0.033808
1.19937
1.34599
0.77623
0.882754
0.739126
0.595383
0.454707
0.315055
0.175392
0.0351801
1.19745
1.36295
0.782811
0.872348
0.737463
0.595023
0.45462
0.315043
0.175513
0.0362676
1.19372
1.3634
0.809054
0.864581
0.735783
0.594637
0.454523
0.315028
0.175618
0.0371015
1.18867
1.35655
0.838392
0.859644
0.73419
0.594234
0.454421
0.31501
0.175699
0.037706
1.18305
1.34769
0.867272
0.85647
0.732714
0.593824
0.454313
0.314988
0.175752
0.0380988
1.17764
1.33822
0.894346
0.854458
0.731362
0.593417
0.454203
0.314962
0.175776
0.0382916
1.17348
1.32901
0.918287
0.853307
0.73014
0.59302
0.454093
0.314933
0.175769
0.0382903
1.17067
1.32095
0.93891
0.852745
0.729047
0.592639
0.453985
0.314901
0.17573
0.038095
1.16919
1.31456
0.95641
0.852553
0.728073
0.59228
0.453881
0.314867
0.175662
0.0376997
1.16908
1.31
0.970976
0.852559
0.727209
0.591946
0.453783
0.314833
0.175568
0.0370928
1.1707
1.30707
0.982759
0.852623
0.726442
0.591641
0.453692
0.314799
0.175452
0.0362567
1.17413
1.30531
0.991897
0.852637
0.725759
0.591366
0.453609
0.314766
0.175319
0.0351672
1.17844
1.3041
0.998547
0.852524
0.725152
0.591125
0.453537
0.314737
0.175179
0.0337934
1.18293
1.30309
1.00287
0.852227
0.724617
0.59092
0.453477
0.314714
0.175038
0.0320964
1.18676
1.30264
1.00521
0.851721
0.724145
0.59075
0.453429
0.314699
0.174927
0.0298218
1.18941
1.3038
1.00551
0.851031
0.723771
0.590631
0.453398
0.314691
0.175025
0.0269308
0
0
0.860566
0.910596
0.744205
0.596364
0.454929
0.315111
0.175403
0.0299684
0
0
0.854716
0.905091
0.743251
0.59619
0.454892
0.315103
0.175313
0.0331235
0
0
0.829046
0.902043
0.742196
0.595952
0.454837
0.315094
0.175448
0.0355819
0
0
0.834005
0.897015
0.740929
0.595675
0.454773
0.315088
0.175606
0.0373651
1.18636
1.33534
0.770435
0.887769
0.739453
0.595355
0.454697
0.315081
0.175755
0.0387875
1.18463
1.36829
0.754471
0.875634
0.73777
0.594997
0.454611
0.31507
0.175888
0.0399079
1.18414
1.37938
0.776477
0.865171
0.735977
0.594613
0.454516
0.315057
0.176001
0.0407633
1.18708
1.37352
0.813872
0.858125
0.734229
0.594214
0.454416
0.31504
0.176088
0.0413814
1.19211
1.35759
0.849891
0.8542
0.732645
0.593809
0.454311
0.315019
0.176145
0.0417824
1.19712
1.33917
0.881232
0.852325
0.731259
0.593409
0.454204
0.314995
0.17617
0.0419791
1.20069
1.32286
0.90863
0.851578
0.730049
0.59302
0.454097
0.314966
0.176163
0.0419779
1.20169
1.31037
0.932254
0.851442
0.728985
0.592648
0.453991
0.314935
0.176123
0.0417787
1.20008
1.3019
0.952206
0.851626
0.728045
0.592297
0.45389
0.314901
0.176052
0.0413753
1.19583
1.29723
0.968737
0.85195
0.727216
0.591972
0.453794
0.314866
0.175953
0.0407549
1.1893
1.29593
0.982048
0.852282
0.726481
0.591675
0.453704
0.314832
0.175828
0.0398974
1.182
1.29703
0.99212
0.852518
0.725829
0.591407
0.453624
0.314798
0.175683
0.038775
1.17578
1.29888
0.999018
0.852564
0.725253
0.591173
0.453553
0.314768
0.175525
0.037351
1.17283
1.30018
1.0032
0.852343
0.724734
0.59097
0.453494
0.314743
0.175359
0.0355664
1.17385
1.30114
1.00545
0.851837
0.724249
0.590793
0.453443
0.314725
0.175218
0.0331067
1.17641
1.30321
1.00584
0.851117
0.723851
0.590666
0.45341
0.314716
0.175304
0.0299508
0
0
0.866472
0.912836
0.744521
0.596371
0.454926
0.315133
0.175653
0.0318926
0
0
0.861201
0.907605
0.743563
0.596195
0.454888
0.315126
0.175569
0.0351056
0
0
0.836087
0.905138
0.742534
0.595955
0.454833
0.315118
0.175715
0.0376196
0
0
0.838419
0.900711
0.741321
0.595682
0.454769
0.315113
0.175884
0.0394448
1.17957
1.33784
0.770699
0.891696
0.739899
0.595368
0.454694
0.315107
0.176042
0.0408979
1.17912
1.37434
0.743221
0.879147
0.73824
0.595017
0.454609
0.315098
0.176184
0.042041
1.18252
1.39002
0.75074
0.86707
0.736391
0.594634
0.454516
0.315086
0.176303
0.0429126
1.19368
1.38612
0.783407
0.857928
0.734505
0.594231
0.454417
0.31507
0.176393
0.0435419
1.2114
1.36688
0.826221
0.852648
0.732756
0.593821
0.454313
0.31505
0.176453
0.0439498
1.23042
1.34102
0.866034
0.850296
0.731236
0.593416
0.454207
0.315026
0.17648
0.0441497
1.24486
1.31598
0.898837
0.849576
0.729947
0.593024
0.454101
0.314998
0.176473
0.0441485
1.25145
1.29648
0.92602
0.849698
0.728851
0.592651
0.453997
0.314967
0.176432
0.0439462
1.24974
1.28471
0.948951
0.85024
0.727909
0.592302
0.453896
0.314933
0.176359
0.043536
1.23959
1.28055
0.967695
0.850956
0.727099
0.591979
0.453801
0.314898
0.176255
0.0429044
1.22177
1.28212
0.982049
0.851661
0.726405
0.591687
0.453713
0.314863
0.176124
0.0420307
1.20025
1.28682
0.992359
0.852188
0.725803
0.591426
0.453634
0.314829
0.175972
0.0408857
1.18154
1.29246
0.999304
0.852421
0.725263
0.591196
0.453564
0.314797
0.175804
0.0394309
1.17069
1.29713
1.00351
0.852294
0.724763
0.590995
0.453504
0.314771
0.175627
0.0376043
1.16806
1.30005
1.00576
0.851829
0.724285
0.590817
0.453453
0.314752
0.175475
0.035089
1.16941
1.3029
1.00625
0.851129
0.723887
0.590688
0.453419
0.314742
0.175555
0.0318752
0
0
0.868424
0.914136
0.744712
0.596379
0.454925
0.315146
0.175795
0.0328183
0
0
0.863154
0.909018
0.743759
0.596202
0.454887
0.315139
0.175712
0.0360455
0
0
0.837647
0.906805
0.742745
0.595963
0.454832
0.315133
0.175861
0.0385782
0
0
0.839025
0.902632
0.741558
0.595692
0.454768
0.315129
0.176035
0.0404201
1.17721
1.34159
0.77019
0.893709
0.740164
0.595381
0.454694
0.315123
0.176198
0.0418868
1.17767
1.37904
0.740324
0.881029
0.738523
0.595032
0.45461
0.315115
0.176343
0.0430405
1.18407
1.39529
0.742836
0.868592
0.736668
0.594653
0.454517
0.315104
0.176464
0.0439201
1.20102
1.39139
0.768421
0.858653
0.734738
0.594252
0.454419
0.315088
0.176557
0.044555
1.22651
1.37108
0.807445
0.852134
0.732893
0.593838
0.454315
0.315069
0.176618
0.0449666
1.2541
1.34209
0.850694
0.848843
0.731252
0.593424
0.454209
0.315045
0.176646
0.0451684
1.27621
1.31266
0.890686
0.847898
0.729862
0.593024
0.454103
0.315017
0.176639
0.0451672
1.28676
1.28875
0.923549
0.848268
0.72871
0.592645
0.453999
0.314986
0.176597
0.044963
1.28476
1.27435
0.948862
0.849214
0.727766
0.592296
0.453899
0.314952
0.176522
0.0445491
1.27021
1.27003
0.967905
0.850289
0.72699
0.591977
0.453805
0.314917
0.176417
0.0439119
1.24465
1.27311
0.982105
0.85125
0.726336
0.591689
0.453718
0.314881
0.176283
0.0430303
1.21473
1.28032
0.992424
0.85195
0.725767
0.591432
0.453639
0.314846
0.176127
0.0418747
1.18841
1.28852
0.999433
0.852292
0.725249
0.591204
0.453569
0.314814
0.175955
0.0404064
1.17191
1.29523
1.00368
0.852226
0.724762
0.591005
0.453509
0.314787
0.175774
0.038563
1.16642
1.29941
1.00594
0.851793
0.724291
0.590827
0.453458
0.314767
0.175619
0.036029
1.16691
1.30277
1.0065
0.851112
0.723896
0.590699
0.453424
0.314757
0.175697
0.032801
0
0
0.868424
0.914136
0.744712
0.596379
0.454925
0.315146
0.175795
0.0328183
0
0
0.863154
0.909018
0.743759
0.596202
0.454887
0.315139
0.175712
0.0360455
0
0
0.837647
0.906805
0.742745
0.595963
0.454832
0.315133
0.175861
0.0385782
0
0
0.839025
0.902632
0.741558
0.595692
0.454768
0.315129
0.176035
0.0404201
1.17721
1.34159
0.77019
0.893709
0.740164
0.595381
0.454694
0.315123
0.176198
0.0418868
1.17767
1.37904
0.740324
0.881029
0.738523
0.595032
0.45461
0.315115
0.176343
0.0430405
1.18407
1.39529
0.742836
0.868592
0.736668
0.594653
0.454517
0.315104
0.176464
0.0439201
1.20102
1.39139
0.768421
0.858653
0.734738
0.594252
0.454419
0.315088
0.176557
0.044555
1.22651
1.37108
0.807445
0.852134
0.732893
0.593838
0.454315
0.315069
0.176618
0.0449666
1.2541
1.34209
0.850694
0.848843
0.731252
0.593424
0.454209
0.315045
0.176646
0.0451684
1.27621
1.31266
0.890686
0.847898
0.729862
0.593024
0.454103
0.315017
0.176639
0.0451672
1.28676
1.28875
0.923549
0.848268
0.72871
0.592645
0.453999
0.314986
0.176597
0.044963
1.28476
1.27435
0.948862
0.849214
0.727766
0.592296
0.453899
0.314952
0.176522
0.0445491
1.27021
1.27003
0.967905
0.850289
0.72699
0.591977
0.453805
0.314917
0.176417
0.0439119
1.24465
1.27311
0.982105
0.85125
0.726336
0.591689
0.453718
0.314881
0.176283
0.0430303
1.21473
1.28032
0.992424
0.85195
0.725767
0.591432
0.453639
0.314846
0.176127
0.0418747
1.18841
1.28852
0.999433
0.852292
0.725249
0.591204
0.453569
0.314814
0.175955
0.0404064
1.17191
1.29523
1.00368
0.852226
0.724762
0.591005
0.453509
0.314787
0.175774
0.038563
1.16642
1.29941
1.00594
0.851793
0.724291
0.590827
0.453458
0.314767
0.175619
0.036029
1.16691
1.30277
1.0065
0.851112
0.723896
0.590699
0.453424
0.314757
0.175697
0.032801
0
0
0.866472
0.912836
0.744521
0.596371
0.454926
0.315133
0.175653
0.0318926
0
0
0.861201
0.907605
0.743563
0.596195
0.454888
0.315126
0.175569
0.0351056
0
0
0.836087
0.905138
0.742534
0.595955
0.454833
0.315118
0.175715
0.0376196
0
0
0.838419
0.900711
0.741321
0.595682
0.454769
0.315113
0.175884
0.0394448
1.17957
1.33784
0.770699
0.891696
0.739899
0.595368
0.454694
0.315107
0.176042
0.0408979
1.17912
1.37434
0.743221
0.879147
0.73824
0.595017
0.454609
0.315098
0.176184
0.042041
1.18252
1.39002
0.75074
0.86707
0.736391
0.594634
0.454516
0.315086
0.176303
0.0429126
1.19368
1.38612
0.783407
0.857928
0.734505
0.594231
0.454417
0.31507
0.176393
0.0435419
1.2114
1.36688
0.826221
0.852648
0.732756
0.593821
0.454313
0.31505
0.176453
0.0439498
1.23042
1.34102
0.866034
0.850296
0.731236
0.593416
0.454207
0.315026
0.17648
0.0441497
1.24486
1.31598
0.898837
0.849576
0.729947
0.593024
0.454101
0.314998
0.176473
0.0441485
1.25145
1.29648
0.92602
0.849698
0.728851
0.592651
0.453997
0.314967
0.176432
0.0439462
1.24974
1.28471
0.948951
0.85024
0.727909
0.592302
0.453896
0.314933
0.176359
0.043536
1.23959
1.28055
0.967695
0.850956
0.727099
0.591979
0.453801
0.314898
0.176255
0.0429044
1.22177
1.28212
0.982049
0.851661
0.726405
0.591687
0.453713
0.314863
0.176124
0.0420307
1.20025
1.28682
0.992359
0.852188
0.725803
0.591426
0.453634
0.314829
0.175972
0.0408857
1.18154
1.29246
0.999304
0.852421
0.725263
0.591196
0.453564
0.314797
0.175804
0.0394309
1.17069
1.29713
1.00351
0.852294
0.724763
0.590995
0.453504
0.314771
0.175627
0.0376043
1.16806
1.30005
1.00576
0.851829
0.724285
0.590817
0.453453
0.314752
0.175475
0.035089
1.16941
1.3029
1.00625
0.851129
0.723887
0.590688
0.453419
0.314742
0.175555
0.0318752
0
0
0.860566
0.910596
0.744205
0.596364
0.454929
0.315111
0.175403
0.0299684
0
0
0.854716
0.905091
0.743251
0.59619
0.454892
0.315103
0.175313
0.0331235
0
0
0.829046
0.902043
0.742196
0.595952
0.454837
0.315094
0.175448
0.0355819
0
0
0.834005
0.897015
0.740929
0.595675
0.454773
0.315088
0.175606
0.0373651
1.18636
1.33534
0.770435
0.887769
0.739453
0.595355
0.454697
0.315081
0.175755
0.0387875
1.18463
1.36829
0.754471
0.875634
0.73777
0.594997
0.454611
0.31507
0.175888
0.0399079
1.18414
1.37938
0.776477
0.865171
0.735977
0.594613
0.454516
0.315057
0.176001
0.0407633
1.18708
1.37352
0.813872
0.858125
0.734229
0.594214
0.454416
0.31504
0.176088
0.0413814
1.19211
1.35759
0.849891
0.8542
0.732645
0.593809
0.454311
0.315019
0.176145
0.0417824
1.19712
1.33917
0.881232
0.852325
0.731259
0.593409
0.454204
0.314995
0.17617
0.0419791
1.20069
1.32286
0.90863
0.851578
0.730049
0.59302
0.454097
0.314966
0.176163
0.0419779
1.20169
1.31037
0.932254
0.851442
0.728985
0.592648
0.453991
0.314935
0.176123
0.0417787
1.20008
1.3019
0.952206
0.851626
0.728045
0.592297
0.45389
0.314901
0.176052
0.0413753
1.19583
1.29723
0.968737
0.85195
0.727216
0.591972
0.453794
0.314866
0.175953
0.0407549
1.1893
1.29593
0.982048
0.852282
0.726481
0.591675
0.453704
0.314832
0.175828
0.0398974
1.182
1.29703
0.99212
0.852518
0.725829
0.591407
0.453624
0.314798
0.175683
0.038775
1.17578
1.29888
0.999018
0.852564
0.725253
0.591173
0.453553
0.314768
0.175525
0.037351
1.17283
1.30018
1.0032
0.852343
0.724734
0.59097
0.453494
0.314743
0.175359
0.0355664
1.17385
1.30114
1.00545
0.851837
0.724249
0.590793
0.453443
0.314725
0.175218
0.0331067
1.17641
1.30321
1.00584
0.851117
0.723851
0.590666
0.45341
0.314716
0.175304
0.0299508
0
0
0.850205
0.908725
0.743886
0.596368
0.454936
0.31509
0.175125
0.0269488
0
0
0.844943
0.90252
0.742997
0.596208
0.454901
0.315082
0.175023
0.029839
0
0
0.815408
0.89863
0.74196
0.595984
0.454849
0.315072
0.175128
0.0321124
0
0
0.818281
0.892258
0.740646
0.595706
0.454784
0.315064
0.175261
0.033808
1.19937
1.34599
0.77623
0.882754
0.739126
0.595383
0.454707
0.315055
0.175392
0.0351801
1.19745
1.36295
0.782811
0.872348
0.737463
0.595023
0.45462
0.315043
0.175513
0.0362676
1.19372
1.3634
0.809054
0.864581
0.735783
0.594637
0.454523
0.315028
0.175618
0.0371015
1.18867
1.35655
0.838392
0.859644
0.73419
0.594234
0.454421
0.31501
0.175699
0.037706
1.18305
1.34769
0.867272
0.85647
0.732714
0.593824
0.454313
0.314988
0.175752
0.0380988
1.17764
1.33822
0.894346
0.854458
0.731362
0.593417
0.454203
0.314962
0.175776
0.0382916
1.17348
1.32901
0.918287
0.853307
0.73014
0.59302
0.454093
0.314933
0.175769
0.0382903
1.17067
1.32095
0.93891
0.852745
0.729047
0.592639
0.453985
0.314901
0.17573
0.038095
1.16919
1.31456
0.95641
0.852553
0.728073
0.59228
0.453881
0.314867
0.175662
0.0376997
1.16908
1.31
0.970976
0.852559
0.727209
0.591946
0.453783
0.314833
0.175568
0.0370928
1.1707
1.30707
0.982759
0.852623
0.726442
0.591641
0.453692
0.314799
0.175452
0.0362567
1.17413
1.30531
0.991897
0.852637
0.725759
0.591366
0.453609
0.314766
0.175319
0.0351672
1.17844
1.3041
0.998547
0.852524
0.725152
0.591125
0.453537
0.314737
0.175179
0.0337934
1.18293
1.30309
1.00287
0.852227
0.724617
0.59092
0.453477
0.314714
0.175038
0.0320964
1.18676
1.30264
1.00521
0.851721
0.724145
0.59075
0.453429
0.314699
0.174927
0.0298218
1.18941
1.3038
1.00551
0.851031
0.723771
0.590631
0.453398
0.314691
0.175025
0.0269308
0
0
0.841498
0.909711
0.743719
0.596376
0.45494
0.31508
0.174964
0.0232808
0
0
0.838302
0.903123
0.743124
0.59625
0.454911
0.315075
0.174948
0.0250438
0
0
0.808547
0.899325
0.74219
0.596046
0.454863
0.315068
0.175003
0.0269619
0
0
0.794902
0.890572
0.740961
0.595773
0.454798
0.315059
0.1751
0.0286409
1.21135
1.35072
0.79642
0.881977
0.73946
0.595445
0.45472
0.315049
0.175212
0.0300018
1.20981
1.35172
0.810473
0.873784
0.737804
0.595075
0.45463
0.315035
0.175322
0.0310791
1.20475
1.35129
0.829554
0.866957
0.736104
0.594678
0.454531
0.315019
0.17542
0.0319045
1.19685
1.34864
0.854296
0.861765
0.734442
0.594263
0.454426
0.315
0.175497
0.0325027
1.18846
1.34377
0.879819
0.858157
0.73289
0.593843
0.454316
0.314977
0.175548
0.0328915
1.18117
1.3378
0.903527
0.855768
0.731475
0.593425
0.454204
0.31495
0.175571
0.0330823
1.17554
1.33155
0.924812
0.854279
0.730202
0.593018
0.454091
0.314921
0.175564
0.033081
1.17189
1.3256
0.943494
0.853431
0.729065
0.592627
0.453981
0.314888
0.175526
0.0328875
1.17058
1.32032
0.959538
0.853007
0.728053
0.592258
0.453874
0.314855
0.17546
0.0324962
1.17165
1.31588
0.972997
0.852826
0.727156
0.591916
0.453773
0.31482
0.17537
0.0318956
1.17498
1.31235
0.983963
0.852742
0.72636
0.591602
0.45368
0.314786
0.175259
0.0310679
1.18042
1.30967
0.992547
0.852638
0.725652
0.591321
0.453596
0.314755
0.175138
0.0299886
1.18753
1.30774
0.998875
0.852426
0.725025
0.591075
0.453523
0.314726
0.175017
0.028626
1.19475
1.30629
1.0031
0.852062
0.724475
0.590868
0.453463
0.314703
0.174911
0.0269455
1.19954
1.30533
1.00543
0.85159
0.724031
0.590709
0.453418
0.314687
0.17485
0.0250262
1.20106
1.305
1.00578
0.851046
0.723722
0.59061
0.453391
0.314677
0.174863
0.0232627

VECTORS velocity float
0 0 0
0 0 0
0.665397 -0.0279174 -0.00479095
0.618555 -0.00171361 0.000985846
0.635206 -0.000513227 0.00013759
0.640673 -0.000119268 3.40636e-05
0.641916 -2.61101e-05 8.10472e-06
0.642234 -7.97619e-06 -3.63818e-06
0.642469 1.32567e-05 -5.39129e-05
0.673336 -0.00208899 -0.00196788
0 0 0
0 0 0
-0.0724906 -0.0827989 -0.00399061
0.646048 -0.0105062 0.000803991
0.721911 -0.00205524 0.000238864
0.732645 -0.000431425 5.76608e-05
0.734627 -9.28828e-05 1.30229e-05
0.735094 -2.71619e-05 -2.57366e-06
0.735998 -2.78963e-05 -4.69672e-05
0.751233 -0.0043263 -0.00259464
0 0 0
0 0 0
0.691342 -0.1415 -0.00237615
0.693544 -0.0213801 0.000603462
0.736624 -0.00400425 0.000210807
0.746465 -0.000822725 5.83203e-05
0.74852 -0.000176589 1.37069e-05
0.749009 -4.9761e-05 -2.69044e-06
0.749881 -0.000127706 -5.82511e-05
0.761186 -0.00417108 -0.00271887
0 0 0
0 0 0
-0.0584815 -0.203319 -0.000519833
0.668 -0.0311946 -0.000176106
0.738071 -0.00590701 0.000166077
0.748724 -0.00121435 5.48028e-05
0.750729 -0.000260894 1.31064e-05
0.751195 -7.14886e-05 -3.1349e-06
0.751894 -0.00019627 -6.962e-05
0.762738 -0.00351551 -0.00275688
0.353701 -0.0146459 -0.031098
0.689667 0.00870517 -0.0242675
0.692396 -0.235978 0.0114171
0.697217 -0.041433 0.00121256
0.740565 -0.0077271 0.000230403
0.74925 -0.0015802 5.30438e-05
0.751023 -0.000339317 1.18907e-05
0.75144 -9.04356e-05 -3.77042e-06
0.751982 -0.000225497 -7.52843e-05
0.763052 -0.00284159 -0.00277034
0.442371 -0.0390447 -0.0399118
0.867585 0.0189105 -0.0286258
0.854489 -0.232991 0.0171147
0.725666 -0.0481618 0.00253999
0.74324 -0.00922326 0.000282695
0.749629 -0.00189873 4.85785e-05
0.751112 -0.000408285 1.0149e-05
0.751468 -0.000105593 -4.51763e-06
0.751881 -0.000224777 -7.86774e-05
0.763207 -0.00223013 -0.00277912
0.492128 -0.0527936 -0.0453454
0.902839 0.0193121 -0.0266073
0.89377 -0.218911 0.0135872
0.741257 -0.0519136 0.00236746
0.745445 -0.0103652 0.000244974
0.750015 -0.00216006 3.86137e-05
0.751192 -0.000465611 7.91887e-06
0.751478 -0.000116493 -5.29759e-06
0.751789 -0.000201794 -8.07631e-05
0.763319 -0.00167681 -0.00278511
0.532179 -0.0561527 -0.0492628
0.906206 0.0166579 -0.0237055
0.8989 -0.200277 0.00804117
0.751416 -0.0533694 0.00164739
0.747535 -0.0111583 0.000176836
0.750435 -0.00235767 2.69652e-05
0.75128 -0.000509655 5.4517e-06
0.75149 -0.000122994 -6.06633e-06
0.751723 -0.00016273 -8.20581e-05
0.763402 -0.00116819 -0.00278906
0.564745 -0.0512797 -0.0522859
0.903663 0.0138708 -0.0215065
0.897332 -0.179646 0.00421056
0.760028 -0.0529656 0.000989117
0.749698 -0.0116007 0.000106005
0.750887 -0.00248665 1.51457e-05
0.751375 -0.000539211 2.88241e-06
0.751505 -0.000125182 -6.79714e-06
0.751682 -0.00011266 -8.28464e-05
0.763456 -0.000690804 -0.00279147
0.590029 -0.0400807 -0.0547818
0.900559 0.0120908 -0.0201538
0.894748 -0.158829 0.00180335