# vtk DataFile Version 2.0
TestTestTest
ASCII

DATASET STRUCTURED_GRID
DIMENSIONS 11 21 11
POINTS 2541 float
0 0 0
0.5 0 0
1 0 0
1.5 0 0
2 0 0
2.5 0 0
3 0 0
3.5 0 0
4 0 0
4.5 0 0
5 0 0
0 0.05 0
0.5 0.05 0
1 0.05 0
1.5 0.05 0
2 0.05 0
2.5 0.05 0
3 0.05 0
3.5 0.05 0
4 0.05 0
4.5 0.05 0
5 0.05 0
0 0.1 0
0.5 0.1 0
1 0.1 0
1.5 0.1 0
2 0.1 0
2.5 0.1 0
3 0.1 0
3.5 0.1 0
4 0.1 0
4.5 0.1 0
5 0.1 0
0 0.15 0
0.5 0.15 0
1 0.15 0
1.5 0.15 0
2 0.15 0
2.5 0.15 0
3 0.15 0
3.5 0.15 0
4 0.15 0
4.5 0.15 0
5 0.15 0
0 0.2 0
0.5 0.2 0
1 0.2 0
1.5 0.2 0
2 0.2 0
2.5 0.2 0
3 0.2 0
3.5 0.2 0
4 0.2 0
4.5 0.2 0
5 0.2 0
0 0.25 0
0.5 0.25 0
1 0.25 0
1.5 0.25 0
2 0.25 0
2.5 0.25 0
3 0.25 0
3.5 0.25 0
4 0.25 0
4.5 0.25 0
5 0.25 0
0 0.3 0
0.5 0.3 0
1 0.3 0
1.5 0.3 0
2 0.3 0
2.5 0.3 0
3 0.3 0
3.5 0.3 0
4 0.3 0
4.5 0.3 0
5 0.3 0
0 0.35 0
0.5 0.35 0
1 0.35 0
1.5 0.35 0
2 0.35 0
2.5 0.35 0
3 0.35 0
3.5 0.35 0
4 0.35 0
4.5 0.35 0
5 0.35 0
0 0.4 0
0.5 0.4 0
1 0.4 0
1.5 0.4 0
2 0.4 0
2.5 0.4 0
3 0.4 0
3.5 0.4 0
4 0.4 0
4.5 0.4 0
5 0.4 0
0 0.45 0
0.5 0.45 0
1 0.45 0
1.5 0.45 0
2 0.45 0
2.5 0.45 0
3 0.45 0
3.5 0.45 0
4 0.45 0
4.5 0.45 0
5 0.45 0
0 0.5 0
0.5 0.5 0
1 0.5 0
1.5 0.5 0
2 0.5 0
2.5 0.5 0
3 0.5 0
3.5 0.5 0
4 0.5 0
4.5 0.5 0
5 0.5 0
0 0.55 0
0.5 0.55 0
1 0.55 0
1.5 0.55 0
2 0.55 0
2.5 0.55 0
3 0.55 0
3.5 0.55 0
4 0.55 0
4.5 0.55 0
5 0.55 0
0 0.6 0
0.5 0.6 0
1 0.6 0
1.5 0.6 0
2 0.6 0
2.5 0.6 0
3 0.6 0
3.5 0.6 0
4 0.6 0
4.5 0.6 0
5 0.6 0
0 0.65 0
0.5 0.65 0
1 0.65 0
1.5 0.65 0
2 0.65 0
2.5 0.65 0
3 0.65 0
3.5 0.65 0
4 0.65 0
4.5 0.65 0
5 0.65 0
0 0.7 0
0.5 0.7 0
1 0.7 0
1.5 0.7 0
2 0.7 0
2.5 0.7 0
3 0.7 0
3.5 0.7 0
4 0.7 0
4.5 0.7 0
5 0.7 0
0 0.75 0
0.5 0.75 0
1 0.75 0
1.5 0.75 0
2 0.75 0
2.5 0.75 0
3 0.75 0
3.5 0.75 0
4 0.75 0
4.5 0.75 0
5 0.75 0
0 0.8 0
0.5 0.8 0
1 0.8 0
1.5 0.8 0
2 0.8 0
2.5 0.8 0
3 0.8 0
3.5 0.8 0
4 0.8 0
4.5 0.8 0
5 0.8 0
0 0.85 0
0.5 0.85 0
1 0.85 0
1.5 0.85 0
2 0.85 0
2.5 0.85 0
3 0.85 0
3.5 0.85 0
4 0.85 0
4.5 0.85 0
5 0.85 0
0 0.9 0
0.5 0.9 0
1 0.9 0
1.5 0.9 0
2 0.9 0
2.5 0.9 0
3 0.9 0
3.5 0.9 0
4 0.9 0
4.5 0.9 0
5 0.9 0
0 0.95 0
0.5 0.95 0
1 0.95 0
1.5 0.95 0
2 0.95 0
2.5 0.95 0
3 0.95 0
3.5 0.95 0
4 0.95 0
4.5 0.95 0
5 0.95 0
0 1 0
0.5 1 0
1 1 0
1.5 1 0
2 1 0
2.5 1 0
3 1 0
3.5 1 0
4 1 0
4.5 1 0
5 1 0
0 0 0.1
0.5 0 0.1
1 0 0.1
1.5 0 0.1
2 0 0.1
2.5 0 0.1
3 0 0.1
3.5 0 0.1
4 0 0.1
4.5 0 0.1
5 0 0.1
0 0.05 0.1
0.5 0.05 0.1
1 0.05 0.1
1.5 0.05 0.1
2 0.05 0.1
2.5 0.05 0.1
3 0.05 0.1
3.5 0.05 0.1
4 0.05 0.1
4.5 0.05 0.1
5 0.05 0.1
0 0.1 0.1
0.5 0.1 0.1
1 0.1 0.1
1.5 0.1 0.1
2 0.1 0.1
2.5 0.1 0.1
3 0.1 0.1
3.5 0.1 0.1
4 0.1 0.1
4.5 0.1 0.1
5 0.1 0.1
0 0.15 0.1
0.5 0.15 0.1
1 0.15 0.1
1.5 0.15 0.1
2 0.15 0.1
2.5 0.15 0.1
3 0.15 0.1
3.5 0.15 0.1
4 0.15 0.1
4.5 0.15 0.1
5 0.15 0.1
0 0.2 0.1
0.5 0.2 0.1
1 0.2 0.1
1.5 0.2 0.1
2 0.2 0.1
2.5 0.2 0.1
3 0.2 0.1
3.5 0.2 0.1
4 0.2 0.1
4.5 0.2 0.1
5 0.2 0.1
0 0.25 0.1
0.5 0.25 0.1
1 0.25 0.1
1.5 0.25 0.1
2 0.25 0.1
2.5 0.25 0.1
3 0.25 0.1
3.5 0.25 0.1
4 0.25 0.1
4.5 0.25 0.1
5 0.25 0.1
0 0.3 0.1
0.5 0.3 0.1
1 0.3 0.1
1.5 0.3 0.1
2 0.3 0.1
2.5 0.3 0.1
3 0.3 0.1
3.5 0.3 0.1
4 0.3 0.1
4.5 0.3 0.1
5 0.3 0.1
0 0.35 0.1
0.5 0.35 0.1
1 0.35 0.1
1.5 0.35 0.1
2 0.35 0.1
2.5 0.35 0.1
3 0.35 0.1
3.5 0.35 0.1
4 0.35 0.1
4.5 0.35 0.1
5 0.35 0.1
0 0.4 0.1
0.5 0.4 0.1
1 0.4 0.1
1.5 0.4 0.1
2 0.4 0.1
2.5 0.4 0.1
3 0.4 0.1
3.5 0.4 0.1
4 0.4 0.1
4.5 0.4 0.1
5 0.4 0.1
0 0.45 0.1
0.5 0.45 0.1
1 0.45 0.1
1.5 0.45 0.1
2 0.45 0.1
2.5 0.45 0.1
3 0.45 0.1
3.5 0.45 0.1
4 0.45 0.1
4.5 0.45 0.1
5 0.45 0.1
0 0.5 0.1
0.5 0.5 0.1
1 0.5 0.1
1.5 0.5 0.1
2 0.5 0.1
2.5 0.5 0.1
3 0.5 0.1
3.5 0.5 0.1
4 0.5 0.1
4.5 0.5 0.1
5 0.5 0.1
0 0.55 0.1
0.5 0.55 0.1
1 0.55 0.1
1.5 0.55 0.1
2 0.55 0.1
2.5 0.55 0.1
3 0.55 0.1
3.5 0.55 0.1
4 0.55 0.1
4.5 0.55 0.1
5 0.55 0.1
0 0.6 0.1
0.5 0.6 0.1
1 0.6 0.1
1.5 0.6 0.1
2 0.6 0.1
2.5 0.6 0.1
3 0.6 0.1
3.5 0.6 0.1
4 0.6 0.1
4.5 0.6 0.1
5 0.6 0.1
0 0.65 0.1
0.5 0.65 0.1
1 0.65 0.1
1.5 0.65 0.1
2 0.65 0.1
2.5 0.65 0.1
3 0.65 0.1
3.5 0.65 0.1
4 0.65 0.1
4.5 0.65 0.1
5 0.65 0.1
0 0.7 0.1
0.5 0.7 0.1
1 0.7 0.1
1.5 0.7 0.1
2 0.7 0.1
2.5 0.7 0.1
3 0.7 0.1
3.5 0.7 0.1
4 0.7 0.1
4.5 0.7 0.1
5 0.7 0.1
0 0.75 0.1
0.5 0.75 0.1
1 0.75 0.1
1.5 0.75 0.1
2 0.75 0.1
2.5 0.75 0.1
3 0.75 0.1
3.5 0.75 0.1
4 0.75 0.1
4.5 0.75 0.1
5 0.75 0.1
0 0.8 0.1
0.5 0.8 0.1
1 0.8 0.1
1.5 0.8 0.1
2 0.8 0.1
2.5 0.8 0.1
3 0.8 0.1
3.5 0.8 0.1
4 0.8 0.1
4.5 0.8 0.1
5 0.8 0.1
0 0.85 0.1
0.5 0.85 0.1
1 0.85 0.1
1.5 0.85 0.1
2 0.85 0.1
2.5 0.85 0.1
3 0.85 0.1
3.5 0.85 0.1
4 0.85 0.1
4.5 0.85 0.1
5 0.85 0.1
0 0.9 0.1
0.5 0.9 0.1
1 0.9 0.1
1.5 0.9 0.1
2 0.9 0.1
2.5 0.9 0.1
3 0.9 0.1
3.5 0.9 0.1
4 0.9 0.1
4.5 0.9 0.1
5 0.9 0.1
0 0.95 0.1
0.5 0.95 0.1
1 0.95 0.1
1.5 0.95 0.1
2 0.95 0.1
2.5 0.95 0.1
3 0.95 0.1
3.5 0.95 0.1
4 0.95 0.1
4.5 0.95 0.1
5 0.95 0.1
0 1 0.1
0.5 1 0.1
1 1 0.1
1.5 1 0.1
2 1 0.1
2.5 1 0.1
3 1 0.1
3.5 1 0.1
4 1 0.1
4.5 1 0.1
5 1 0.1
0 0 0.2
0.5 0 0.2
1 0 0.2
1.5 0 0.2
2 0 0.2
2.5 0 0.2
3 0 0.2
3.5 0 0.2
4 0 0.2
4.5 0 0.2
5 0 0.2
0 0.05 0.2
0.5 0.05 0.2
1 0.05 0.2
1.5 0.05 0.2
2 0.05 0.2
2.5 0.05 0.2
3 0.05 0.2
3.5 0.05 0.2
4 0.05 0.2
4.5 0.05 0.2
5 0.05 0.2
0 0.1 0.2
0.5 0.1 0.2
1 0.1 0.2
1.5 0.1 0.2
2 0.1 0.2
2.5 0.1 0.2
3 0.1 0.2
3.5 0.1 0.2
4 0.1 0.2
4.5 0.1 0.2
5 0.1 0.2
0 0.15 0.2
0.5 0.15 0.2
1 0.15 0.2
1.5 0.15 0.2
2 0.15 0.2
2.5 0.15 0.2
3 0.15 0.2
3.5 0.15 0.2
4 0.15 0.2
4.5 0.15 0.2
5 0.15 0.2
0 0.2 0.2
0.5 0.2 0.2
1 0.2 0.2
1.5 0.2 0.2
2 0.2 0.2
2.5 0.2 0.2
3 0.2 0.2
3.5 0.2 0.2
4 0.2 0.2
4.5 0.2 0.2
5 0.2 0.2
0 0.25 0.2
0.5 0.25 0.2
1 0.25 0.2
1.5 0.25 0.2
2 0.25 0.2
2.5 0.25 0.2
3 0.25 0.2
3.5 0.25 0.2
4 0.25 0.2
4.5 0.25 0.2
5 0.25 0.2
0 0.3 0.2
0.5 0.3 0.2
1 0.3 0.2
1.5 0.3 0.2
2 0.3 0.2
2.5 0.3 0.2
3 0.3 0.2
3.5 0.3 0.2
4 0.3 0.2
4.5 0.3 0.2
5 0.3 0.2
0 0.35 0.2
0.5 0.35 0.2
1 0.35 0.2
1.5 0.35 0.2
2 0.35 0.2
2.5 0.35 0.2
3 0.35 0.2
3.5 0.35 0.2
4 0.35 0.2
4.5 0.35 0.2
5 0.35 0.2
0 0.4 0.2
0.5 0.4 0.2
1 0.4 0.2
1.5 0.4 0.2
2 0.4 0.2
2.5 0.4 0.2
3 0.4 0.2
3.5 0.4 0.2
4 0.4 0.2
4.5 0.4 0.2
5 0.4 0.2
0 0.45 0.2
0.5 0.45 0.2
1 0.45 0.2
1.5 0.45 0.2
2 0.45 0.2
2.5 0.45 0.2
3 0.45 0.2
3.5 0.45 0.2
4 0.45 0.2
4.5 0.45 0.2
5 0.45 0.2
0 0.5 0.2
0.5 0.5 0.2
1 0.5 0.2
1.5 0.5 0.2
2 0.5 0.2
2.5 0.5 0.2
3 0.5 0.2
3.5 0.5 0.2
4 0.5 0.2
4.5 0.5 0.2
5 0.5 0.2
0 0.55 0.2
0.5 0.55 0.2
1 0.55 0.2
1.5 0.55 0.2
2 0.55 0.2
2.5 0.55 0.2
3 0.55 0.2
3.5 0.55 0.2
4 0.55 0.2
4.5 0.55 0.2
5 0.55 0.2
0 0.6 0.2
0.5 0.6 0.2
1 0.6 0.2
1.5 0.6 0.2
2 0.6 0.2
2.5 0.6 0.2
3 0.6 0.2
3.5 0.6 0.2
4 0.6 0.2
4.5 0.6 0.2
5 0.6 0.2
0 0.65 0.2
0.5 0.65 0.2
1 0.65 0.2
1.5 0.65 0.2
2 0.65 0.2
2.5 0.65 0.2
3 0.65 0.2
3.5 0.65 0.2
4 0.65 0.2
4.5 0.65 0.2
5 0.65 0.2
0 0.7 0.2
0.5 0.7 0.2
1 0.7 0.2
1.5 0.7 0.2
2 0.7 0.2
2.5 0.7 0.2
3 0.7 0.2
3.5 0.7 0.2
4 0.7 0.2
4.5 0.7 0.2
5 0.7 0.2
0 0.75 0.2
0.5 0.75 0.2
1 0.75 0.2
1.5 0.75 0.2
2 0.75 0.2
2.5 0.75 0.2
3 0.75 0.2
3.5 0.75 0.2
4 0.75 0.2
4.5 0.75 0.2
5 0.75 0.2
0 0.8 0.2
0.5 0.8 0.2
1 0.8 0.2
1.5 0.8 0.2
2 0.8 0.2
2.5 0.8 0.2
3 0.8 0.2
3.5 0.8 0.2
4 0.8 0.2
4.5 0.8 0.2
5 0.8 0.2
0 0.85 0.2
0.5 0.85 0.2
1 0.85 0.2
1.5 0.85 0.2
2 0.85 0.2
2.5 0.85 0.2
3 0.85 0.2
3.5 0.85 0.2
4 0.85 0.2
4.5 0.85 0.2
5 0.85 0.2
0 0.9 0.2
0.5 0.9 0.2
1 0.9 0.2
1.5 0.9 0.2
2 0.9 0.2
2.5 0.9 0.2
3 0.9 0.2
3.5 0.9 0.2
4 0.9 0.2
4.5 0.9 0.2
5 0.9 0.2
0 0.95 0.2
0.5 0.95 0.2
1 0.95 0.2
1.5 0.95 0.2
2 0.95 0.2
2.5 0.95 0.2
3 0.95 0.2
3.5 0.95 0.2
4 0.95 0.2
4.5 0.95 0.2
5 0.95 0.2
0 1 0.2
0.5 1 0.2
1 1 0.2
1.5 1 0.2
2 1 0.2
2.5 1 0.2
3 1 0.2
3.5 1 0.2
4 1 0.2
4.5 1 0.2
5 1 0.2
0 0 0.3
0.5 0 0.3
1 0 0.3
1.5 0 0.3
2 0 0.3
2.5 0 0.3
3 0 0.3
3.5 0 0.3
4 0 0.3
4.5 0 0.3
5 0 0.3
0 0.05 0.3
0.5 0.05 0.3
1 0.05 0.3
1.5 0.05 0.3
2 0.05 0.3
2.5 0.05 0.3
3 0.05 0.3
3.5 0.05 0.3
4 0.05 0.3
4.5 0.05 0.3
5 0.05 0.3
0 0.1 0.3
0.5 0.1 0.3
1 0.1 0.3
1.5 0.1 0.3
2 0.1 0.3
2.5 0.1 0.3
3 0.1 0.3
3.5 0.1 0.3
4 0.1 0.3
4.5 0.1 0.3
5 0.1 0.3
0 0.15 0.3
0.5 0.15 0.3
1 0.15 0.3
1.5 0.15 0.3
2 0.15 0.3
2.5 0.15 0.3
3 0.15 0.3
3.5 0.15 0.3
4 0.15 0.3
4.5 0.15 0.3
5 0.15 0.3
0 0.2 0.3
0.5 0.2 0.3
1 0.2 0.3
1.5 0.2 0.3
2 0.2 0.3
2.5 0.2 0.3
3 0.2 0.3
3.5 0.2 0.3
4 0.2 0.3
4.5 0.2 0.3
5 0.2 0.3
0 0.25 0.3
0.5 0.25 0.3
1 0.25 0.3
1.5 0.25 0.3
2 0.25 0.3
2.5 0.25 0.3
3 0.25 0.3
3.5 0.25 0.3
4 0.25 0.3
4.5 0.25 0.3
5 0.25 0.3
0 0.3 0.3
0.5 0.3 0.3
1 0.3 0.3
1.5 0.3 0.3
2 0.3 0.3
2.5 0.3 0.3
3 0.3 0.3
3.5 0.3 0.3
4 0.3 0.3
4.5 0.3 0.3
5 0.3 0.3
0 0.35 0.3
0.5 0.35 0.3
1 0.35 0.3
1.5 0.35 0.3
2 0.35 0.3
2.5 0.35 0.3
3 0.35 0.3
3.5 0.35 0.3
4 0.35 0.3
4.5 0.35 0.3
5 0.35 0.3
0 0.4 0.3
0.5 0.4 0.3
1 0.4 0.3
1.5 0.4 0.3
2 0.4 0.3
2.5 0.4 0.3
3 0.4 0.3
3.5 0.4 0.3
4 0.4 0.3
4.5 0.4 0.3
5 0.4 0.3
0 0.45 0.3
0.5 0.45 0.3
1 0.45 0.3
1.5 0.45 0.3
2 0.45 0.3
2.5 0.45 0.3
3 0.45 0.3
3.5 0.45 0.3
4 0.45 0.3
4.5 0.45 0.3
5 0.45 0.3
0 0.5 0.3
0.5 0.5 0.3
1 0.5 0.3
1.5 0.5 0.3
2 0.5 0.3
2.5 0.5 0.3
3 0.5 0.3
3.5 0.5 0.3
4 0.5 0.3
4.5 0.5 0.3
5 0.5 0.3
0 0.55 0.3
0.5 0.55 0.3
1 0.55 0.3
1.5 0.55 0.3
2 0.55 0.3
2.5 0.55 0.3
3 0.55 0.3
3.5 0.55 0.3
4 0.55 0.3
4.5 0.55 0.3
5 0.55 0.3
0 0.6 0.3
0.5 0.6 0.3
1 0.6 0.3
1.5 0.6 0.3
2 0.6 0.3
2.5 0.6 0.3
3 0.6 0.3
3.5 0.6 0.3
4 0.6 0.3
4.5 0.6 0.3
5 0.6 0.3
0 0.65 0.3
0.5 0.65 0.3
1 0.65 0.3
1.5 0.65 0.3
2 0.65 0.3
2.5 0.65 0.3
3 0.65 0.3
3.5 0.65 0.3
4 0.65 0.3
4.5 0.65 0.3
5 0.65 0.3
0 0.7 0.3
0.5 0.7 0.3
1 0.7 0.3
1.5 0.7 0.3
2 0.7 0.3
2.5 0.7 0.3
3 0.7 0.3
3.5 0.7 0.3
4 0.7 0.3
4.5 0.7 0.3
5 0.7 0.3
0 0.75 0.3
0.5 0.75 0.3
1 0.75 0.3
1.5 0.75 0.3
2 0.75 0.3
2.5 0.75 0.3
3 0.75 0.3
3.5 0.75 0.3
4 0.75 0.3
4.5 0.75 0.3
5 0.75 0.3
0 0.8 0.3
0.5 0.8 0.3
1 0.8 0.3
1.5 0.8 0.3
2 0.8 0.3
2.5 0.8 0.3
3 0.8 0.3
3.5 0.8 0.3
4 0.8 0.3
4.5 0.8 0.3
5 0.8 0.3
0 0.85 0.3
0.5 0.85 0.3
1 0.85 0.3
1.5 0.85 0.3
2 0.85 0.3
2.5 0.85 0.3
3 0.85 0.3
3.5 0.85 0.3
4 0.85 0.3
4.5 0.85 0.3
5 0.85 0.3
0 0.9 0.3
0.5 0.9 0.3
1 0.9 0.3
1.5 0.9 0.3
2 0.9 0.3
2.5 0.9 0.3
3 0.9 0.3
3.5 0.9 0.3
4 0.9 0.3
4.5 0.9 0.3
5 0.9 0.3
0 0.95 0.3
0.5 0.95 0.3
1 0.95 0.3
1.5 0.95 0.3
2 0.95 0.3
2.5 0.95 0.3
3 0.95 0.3
3.5 0.95 0.3
4 0.95 0.3
4.5 0.95 0.3
5 0.95 0.3
0 1 0.3
0.5 1 0.3
1 1 0.3
1.5 1 0.3
2 1 0.3
2.5 1 0.3
3 1 0.3
3.5 1 0.3
4 1 0.3
4.5 1 0.3
5 1 0.3
0 0 0.4
[...]
CELL_DATA 2000
SCALARS pressure float 1
LOOKUP_TABLE default
0
0
0.859526
0.929226
0.759815
0.609645
0.465153
0.322167
0.178887
0.0235226
0
0
0.856427
0.922425
0.759209
0.609517
0.465123
0.322162
0.178878
0.0254385
0
0
0.825173
0.91847
0.758266
0.609313
0.465075
0.322155
0.178937
0.0274437
0
0
0.811443
0.909452
0.757052
0.609047
0.465012
0.322147
0.179038
0.0291751
1.26974
1.40587
0.813775
0.900704
0.755588
0.608729
0.464935
0.322137
0.179152
0.0305784
1.26787
1.40583
0.829818
0.892622
0.753989
0.608373
0.464848
0.322124
0.179264
0.0316901
1.26235
1.40387
0.850846
0.886069
0.752361
0.60799
0.464752
0.322109
0.179363
0.0325426
1.2539
1.39952
0.877322
0.881217
0.750783
0.607593
0.46465
0.32209
0.179442
0.0331607
1.24494
1.39321
0.904077
0.877933
0.749318
0.60719
0.464544
0.322067
0.179495
0.0335626
1.23714
1.38609
0.928741
0.875836
0.747988
0.606791
0.464435
0.322042
0.179518
0.03376
1.23107
1.37895
0.950792
0.874608
0.746796
0.606402
0.464326
0.322013
0.17951
0.0337587
1.22709
1.37229
0.970073
0.873991
0.745734
0.60603
0.46422
0.321981
0.179473
0.0335587
1.22556
1.36641
0.986574
0.873769
0.744793
0.605678
0.464117
0.321948
0.179406
0.0331543
1.22652
1.36146
1.00038
0.873762
0.743959
0.605352
0.464019
0.321914
0.179314
0.0325337
1.22986
1.35749
1.01159
0.873825
0.743219
0.605053
0.463929
0.32188
0.179202
0.0316789
1.23544
1.35443
1.02036
0.873844
0.742561
0.604784
0.463848
0.321849
0.179078
0.0305652
1.24278
1.35222
1.02682
0.873731
0.741974
0.604549
0.463777
0.321821
0.178955
0.0291601
1.25029
1.35064
1.03114
0.873438
0.741454
0.604349
0.463718
0.321798
0.178846
0.0274272
1.25536
1.34973
1.03353
0.872997
0.741024
0.604194
0.463674
0.321781
0.178781
0.0254209
1.25715
1.34953
1.0339
0.872452
0.740716
0.604094
0.463646
0.321772
0.178787
0.0235043
0
0
0.868569
0.927721
0.759913
0.609627
0.465147
0.322178
0.179053
0.0273396
0
0
0.863468
0.921391
0.759007
0.609461
0.465111
0.322169
0.178981
0.0304219
0
0
0.832911
0.917416
0.757996
0.609242
0.465059
0.322161
0.17909
0.0327314
0
0
0.836679
0.910873
0.756709
0.608972
0.464996
0.322153
0.179222
0.0344814
1.25688
1.40209
0.792292
0.90125
0.755234
0.60866
0.464921
0.322144
0.179353
0.035899
1.25454
1.41903
0.800325
0.89094
0.753637
0.608314
0.464837
0.322133
0.179475
0.0370227
1.25016
1.41741
0.829575
0.883588
0.752041
0.607944
0.464743
0.322119
0.17958
0.0378846
1.24432
1.40847
0.861217
0.879136
0.750538
0.60756
0.464644
0.322102
0.179663
0.0385095
1.23781
1.39816
0.891852
0.876359
0.749152
0.60717
0.464541
0.32208
0.179717
0.0389157
1.23153
1.38766
0.920118
0.874683
0.74789
0.606783
0.464435
0.322055
0.179741
0.0391152
1.22667
1.37774
0.944864
0.87381
0.746754
0.606406
0.464329
0.322027
0.179734
0.0391139
1.22338
1.3691
0.966075
0.873479
0.745741
0.606045
0.464225
0.321996
0.179696
0.0389119
1.22168
1.36215
0.983992
0.873481
0.744841
0.605705
0.464125
0.321963
0.179627
0.0385032
1.2216
1.35697
0.998837
0.87365
0.744042
0.605388
0.46403
0.321929
0.179532
0.037876
1.22348
1.35339
1.0108
0.87385
0.743332
0.605098
0.463942
0.321895
0.179414
0.0370119
1.22738
1.35095
1.02005
0.873976
0.742699
0.604837
0.463863
0.321863
0.179281
0.0358862
1.23224
1.34912
1.02676
0.873951
0.742133
0.604606
0.463793
0.321834
0.179141
0.0344668
1.23728
1.34766
1.03113
0.873718
0.741629
0.60441
0.463735
0.321811
0.179001
0.0327154
1.24157
1.34701
1.03346
0.873235
0.741174
0.604245
0.463688
0.321794
0.178886
0.0304047
1.2446
1.34822
1.03373
0.872517
0.740791
0.604122
0.463655
0.321786
0.178954
0.0273216
0
0
0.879208
0.929136
0.760154
0.609614
0.465139
0.322199
0.179336
0.0304167
0
0
0.87351
0.923553
0.759194
0.609436
0.465101
0.322191
0.179276
0.0337461
0
0
0.847277
0.920476
0.758183
0.609207
0.465048
0.322183
0.17941
0.036213
0
0
0.853053
0.915331
0.75695
0.60894
0.464985
0.322177
0.179563
0.0380441
1.24313
1.39233
0.786429
0.906008
0.75552
0.608632
0.464911
0.32217
0.17971
0.03951
1.24083
1.42613
0.770422
0.893953
0.753903
0.608289
0.464828
0.322161
0.179843
0.0406654
1.2395
1.43604
0.795348
0.883837
0.752198
0.607922
0.464737
0.322148
0.179956
0.041548
1.24155
1.42792
0.836246
0.87737
0.750555
0.607541
0.46464
0.322132
0.180043
0.0421861
1.24564
1.41025
0.874614
0.874068
0.749081
0.607157
0.464539
0.322112
0.180101
0.0426002
1.24973
1.391
0.907534
0.872661
0.747798
0.606777
0.464436
0.322088
0.180126
0.0428034
1.25247
1.37428
0.935972
0.872231
0.746679
0.606408
0.464333
0.32206
0.180119
0.0428022
1.25287
1.36138
0.960216
0.872323
0.745695
0.606056
0.464232
0.32203
0.18008
0.0425965
1.25102
1.35239
0.980514
0.872685
0.744829
0.605724
0.464134
0.321997
0.180008
0.04218
1.24689
1.34704
0.997204
0.87315
0.744064
0.605416
0.464041
0.321962
0.179908
0.0415396
1.24073
1.34485
1.01055
0.873596
0.743386
0.605134
0.463955
0.321928
0.179784
0.040655
1.23392
1.34486
1.02061
0.873922
0.742782
0.604879
0.463878
0.321895
0.17964
0.0394976
1.22826
1.34553
1.0275
0.874044
0.742244
0.604655
0.463809
0.321865
0.179483
0.03803
1.22594
1.34576
1.03168
0.873886
0.741757
0.604461
0.463751
0.32184
0.179323
0.0361974
1.22768
1.34605
1.03386
0.873406
0.741294
0.604291
0.463702
0.321822
0.179182
0.0337294
1.23087
1.34796
1.03415
0.872651
0.740887
0.604161
0.463668
0.321812
0.179238
0.030399
0
0
0.885117
0.931093
0.760413
0.609614
0.465135
0.322221
0.179588
0.0323722
0
0
0.879902
0.92579
0.759454
0.609434
0.465096
0.322213
0.179533
0.0357546
0
0
0.854124
0.923298
0.758469
0.609205
0.465043
0.322207
0.179677
0.038272
0
0
0.857032
0.918785
0.757291
0.608942
0.464981
0.322202
0.179839
0.0401424
1.23602
1.39618
0.786319
0.909716
0.755914
0.60864
0.464908
0.322197
0.179995
0.0416374
1.23484
1.43376
0.758536
0.897256
0.754321
0.608302
0.464826
0.322188
0.180135
0.0428143
1.23723
1.44873
0.768589
0.885552
0.752562
0.607937
0.464736
0.322177
0.180253
0.0437122
1.24739
1.44275
0.805387
0.877062
0.750788
0.607554
0.46464
0.322161
0.180343
0.044361
1.26419
1.42144
0.85164
0.872505
0.749163
0.607165
0.464541
0.322142
0.180404
0.0447817
1.28239
1.39455
0.893217
0.870725
0.747764
0.606782
0.464439
0.322119
0.180431
0.0449879
1.29616
1.36921
0.926959
0.87038
0.74658
0.606412
0.464337
0.322091
0.180424
0.0449867
1.30227
1.34953
0.954733
0.870734
0.745574
0.60606
0.464237
0.322061
0.180383
0.0447781
1.30033
1.33742
0.977909
0.87142
0.744708
0.60573
0.46414
0.322028
0.180309
0.0443551
1.29021
1.33263
0.996647
0.872236
0.743961
0.605424
0.464049
0.321994
0.180206
0.0437041
1.27257
1.33322
1.01091
0.873023
0.743322
0.605147
0.463964
0.321959
0.180076
0.042804
1.25135
1.3366
1.02114
0.873627
0.742766
0.604899
0.463888
0.321925
0.179925
0.0416252
1.23312
1.34065
1.02802
0.873932
0.742264
0.60468
0.46382
0.321894
0.17976
0.0401285
1.22302
1.34374
1.03217
0.873868
0.741795
0.604488
0.463762
0.321868
0.17959
0.0382568
1.22134
1.34556
1.0343
0.87343
0.74134
0.604318
0.463713
0.321848
0.17944
0.0357381
1.22351
1.3481
1.03465
0.872692
0.740934
0.604186
0.463678
0.321838
0.179491
0.0323548
0
0
0.886984
0.932257
0.760576
0.609618
0.465134
0.322234
0.17973
0.0333118
0
0
0.881681
0.927065
0.759622
0.609438
0.465095
0.322227
0.179676
0.0367072
0
0
0.855356
0.92482
0.758653
0.60921
0.465042
0.322221
0.179823
0.0392417
0
0
0.857171
0.92057
0.7575
0.608948
0.46498
0.322218
0.17999
0.0411275
1.23354
1.40075
0.785271
0.911608
0.75615
0.608649
0.464907
0.322212
0.180149
0.0426353
1.23319
1.43938
0.755173
0.899034
0.754575
0.608315
0.464826
0.322205
0.180292
0.0438222
1.23847
1.45514
0.760326
0.886994
0.752814
0.607953
0.464737
0.322194
0.180412
0.0447278
1.25438
1.4493
0.790201
0.877757
0.751001
0.607571
0.464642
0.322179
0.180505
0.0453819
1.27895
1.42673
0.833326
0.872061
0.749286
0.60718
0.464543
0.32216
0.180566
0.045806
1.30575
1.39639
0.879053
0.869438
0.747774
0.606789
0.464441
0.322137
0.180594
0.0460141
1.32726
1.36652
0.91987
0.868879
0.746498
0.606411
0.464339
0.32211
0.180587
0.0460129
1.33743
1.34253
0.952759
0.869424
0.74544
0.606054
0.464239
0.322079
0.180546
0.0458025
1.33525
1.32802
0.977975
0.870453
0.744574
0.605724
0.464143
0.322046
0.180471
0.045376
1.32068
1.32326
0.996977
0.871596
0.743861
0.605423
0.464053
0.322012
0.180366
0.0447197
1.29517
1.32542
1.01114
0.872629
0.743261
0.605151
0.463969
0.321977
0.180233
0.0438121
1.26543
1.33119
1.02137
0.873404
0.742736
0.604906
0.463892
0.321943
0.18008
0.0426233
1.23956
1.33758
1.02829
0.873818
0.742256
0.604689
0.463825
0.321911
0.179911
0.0411138
1.22388
1.34246
1.03244
0.873816
0.7418
0.604499
0.463767
0.321884
0.179737
0.0392265
1.21946
1.34531
1.03456
0.873409
0.741352
0.604329
0.463718
0.321864
0.179584
0.0366908
1.22086
1.34827
1.03495
0.872688
0.740948
0.604198
0.463683
0.321854
0.179633
0.0332945
0
0
0.886984
0.932257
0.760576
0.609618
0.465134
0.322234
0.17973
0.0333118
0
0
0.881681
0.927065
0.759622
0.609438
0.465095
0.322227
0.179676
0.0367072
0
0
0.855356
0.92482
0.758653
0.60921
0.465042
0.322221
0.179823
0.0392417
0
0
0.857171
0.92057
0.7575
0.608948
0.46498
0.322218
0.17999
0.0411275
1.23354
1.40075
0.785271
0.911608
0.75615
0.608649
0.464907
0.322212
0.180149
0.0426353
1.23319
1.43938
0.755173
0.899034
0.754575
0.608315
0.464826
0.322205
0.180292
0.0438222
1.23847
1.45514
0.760326
0.886994
0.752814
0.607953
0.464737
0.322194
0.180412
0.0447278
1.25438
1.4493
0.790201
0.877757
0.751001
0.607571
0.464642
0.322179
0.180505
0.0453819
1.27895
1.42673
0.833326
0.872061
0.749286
0.60718
0.464543
0.32216
0.180566
0.045806
1.30575
1.39639
0.879053
0.869438
0.747774
0.606789
0.464441
0.322137
0.180594
0.0460141
1.32726
1.36652
0.91987
0.868879
0.746498
0.606411
0.464339
0.32211
0.180587
0.0460129
1.33743
1.34253
0.952759
0.869424
0.74544
0.606054
0.464239
0.322079
0.180546
0.0458025
1.33525
1.32802
0.977975
0.870453
0.744574
0.605724
0.464143
0.322046
0.180471
0.045376
1.32068
1.32326
0.996977
0.871596
0.743861
0.605423
0.464053
0.322012
0.180366
0.0447197
1.29517
1.32542
1.01114
0.872629
0.743261
0.605151
0.463969
0.321977
0.180233
0.0438121
1.26543
1.33119
1.02137
0.873404
0.742736
0.604906
0.463892
0.321943
0.18008
0.0426233
1.23956
1.33758
1.02829
0.873818
0.742256
0.604689
0.463825
0.321911
0.179911
0.0411138
1.22388
1.34246
1.03244
0.873816
0.7418
0.604499
0.463767
0.321884
0.179737
0.0392265
1.21946
1.34531
1.03456
0.873409
0.741352
0.604329
0.463718
0.321864
0.179584
0.0366908
1.22086
1.34827
1.03495
0.872688
0.740948
0.604198
0.463683
0.321854
0.179633
0.0332945
0
0
0.885117
0.931093
0.760413
0.609614
0.465135
0.322221
0.179588
0.0323722
0
0
0.879902
0.92579
0.759454
0.609434
0.465096
0.322213
0.179533
0.0357546
0
0
0.854124
0.923298
0.758469
0.609205
0.465043
0.322207
0.179677
0.038272
0
0
0.857032
0.918785
0.757291
0.608942
0.464981
0.322202
0.179839
0.0401424
1.23602
1.39618
0.786319
0.909716
0.755914
0.60864
0.464908
0.322197
0.179995
0.0416374
1.23484
1.43376
0.758536
0.897256
0.754321
0.608302
0.464826
0.322188
0.180135
0.0428143
1.23723
1.44873
0.768589
0.885552
0.752562
0.607937
0.464736
0.322177
0.180253
0.0437122
1.24739
1.44275
0.805387
0.877062
0.750788
0.607554
0.46464
0.322161
0.180343
0.044361
1.26419
1.42144
0.85164
0.872505
0.749163
0.607165
0.464541
0.322142
0.180404
0.0447817
1.28239
1.39455
0.893217
0.870725
0.747764
0.606782
0.464439
0.322119
0.180431
0.0449879
1.29616
1.36921
0.926959
0.87038
0.74658
0.606412
0.464337
0.322091
0.180424
0.0449867
1.30227
1.34953
0.954733
0.870734
0.745574
0.60606
0.464237
0.322061
0.180383
0.0447781
1.30033
1.33742
0.977909
0.87142
0.744708
0.60573
0.46414
0.322028
0.180309
0.0443551
1.29021
1.33263
0.996647
0.872236
0.743961
0.605424
0.464049
0.321994
0.180206
0.0437041
1.27257
1.33322
1.01091
0.873023
0.743322
0.605147
0.463964
0.321959
0.180076
0.042804
1.25135
1.3366
1.02114
0.873627
0.742766
0.604899
0.463888
0.321925
0.179925
0.0416252
1.23312
1.34065
1.02802
0.873932
0.742264
0.60468
0.46382
0.321894
0.17976
0.0401285
1.22302
1.34374
1.03217
0.873868
0.741795
0.604488
0.463762
0.321868
0.17959
0.0382568
1.22134
1.34556
1.0343
0.87343
0.74134
0.604318
0.463713
0.321848
0.17944
0.0357381
1.22351
1.3481
1.03465
0.872692
0.740934
0.604186
0.463678
0.321838
0.179491
0.0323548
0
0
0.879208
0.929136
0.760154
0.609614
0.465139
0.322199
0.179336
0.0304167
0
0
0.87351
0.923553
0.759194
0.609436
0.465101
0.322191
0.179276
0.0337461
0
0
0.847277
0.920476
0.758183
0.609207
0.465048
0.322183
0.17941
0.036213
0
0
0.853053
0.915331
0.75695
0.60894
0.464985
0.322177
0.179563
0.0380441
1.24313
1.39233
0.786429
0.906008
0.75552
0.608632
0.464911
0.32217
0.17971
0.03951
1.24083
1.42613
0.770422
0.893953
0.753903
0.608289
0.464828
0.322161
0.179843
0.0406654
1.2395
1.43604
0.795348
0.883837
0.752198
0.607922
0.464737
0.322148
0.179956
0.041548
1.24155
1.42792
0.836246
0.87737
0.750555
0.607541
0.46464
0.322132
0.180043
0.0421861
1.24564
1.41025
0.874614
0.874068
0.749081
0.607157
0.464539
0.322112
0.180101
0.0426002
1.24973
1.391
0.907534
0.872661
0.747798
0.606777
0.464436
0.322088
0.180126
0.0428034
1.25247
1.37428
0.935972
0.872231
0.746679
0.606408
0.464333
0.32206
0.180119
0.0428022
1.25287
1.36138
0.960216
0.872323
0.745695
0.606056
0.464232
0.32203
0.18008
0.0425965
1.25102
1.35239
0.980514
0.872685
0.744829
0.605724
0.464134
0.321997
0.180008
0.04218
1.24689
1.34704
0.997204
0.87315
0.744064
0.605416
0.464041
0.321962
0.179908
0.0415396
1.24073
1.34485
1.01055
0.873596
0.743386
0.605134
0.463955
0.321928
0.179784
0.040655
1.23392
1.34486
1.02061
0.873922
0.742782
0.604879
0.463878
0.321895
0.17964
0.0394976
1.22826
1.34553
1.0275
0.874044
0.742244
0.604655
0.463809
0.321865
0.179483
0.03803
1.22594
1.34576
1.03168
0.873886
0.741757
0.604461
0.463751
0.32184
0.179323
0.0361974
1.22768
1.34605
1.03386
0.873406
0.741294
0.604291
0.463702
0.321822
0.179182
0.0337294
1.23087
1.34796
1.03415
0.872651
0.740887
0.604161
0.463668
0.321812
0.179238
0.030399
0
0
0.868569
0.927721
0.759913
0.609627
0.465147
0.322178
0.179053
0.0273396
0
0
0.863468
0.921391
0.759007
0.609461
0.465111
0.322169
0.178981
0.0304219
0
0
0.832911
0.917416
0.757996
0.609242
0.465059
0.322161
0.17909
0.0327314
0
0
0.836679
0.910873
0.756709
0.608972
0.464996
0.322153
0.179222
0.0344814
1.25688
1.40209
0.792292
0.90125
0.755234
0.60866
0.464921
0.322144
0.179353
0.035899
1.25454
1.41903
0.800325
0.89094
0.753637
0.608314
0.464837
0.322133
0.179475
0.0370227
1.25016
1.41741
0.829575
0.883588
0.752041
0.607944
0.464743
0.322119
0.17958
0.0378846
1.24432
1.40847
0.861217
0.879136
0.750538
0.60756
0.464644
0.322102
0.179663
0.0385095
1.23781
1.39816
0.891852
0.876359
0.749152
0.60717
0.464541
0.32208
0.179717
0.0389157
1.23153
1.38766
0.920118
0.874683
0.74789
0.606783
0.464435
0.322055
0.179741
0.0391152
1.22667
1.37774
0.944864
0.87381
0.746754
0.606406
0.464329
0.322027
0.179734
0.0391139
1.22338
1.3691
0.966075
0.873479
0.745741
0.606045
0.464225
0.321996
0.179696
0.0389119
1.22168
1.36215
0.983992
0.873481
0.744841
0.605705
0.464125
0.321963
0.179627
0.0385032
1.2216
1.35697
0.998837
0.87365
0.744042
0.605388
0.46403
0.321929
0.179532
0.037876
1.22348
1.35339
1.0108
0.87385
0.743332
0.605098
0.463942
0.321895
0.179414
0.0370119
1.22738
1.35095
1.02005
0.873976
0.742699
0.604837
0.463863
0.321863
0.179281
0.0358862
1.23224
1.34912
1.02676
0.873951
0.742133
0.604606
0.463793
0.321834
0.179141
0.0344668
1.23728
1.34766
1.03113
0.873718
0.741629
0.60441
0.463735
0.321811
0.179001
0.0327154
1.24157
1.34701
1.03346
0.873235
0.741174
0.604245
0.463688
0.321794
0.178886
0.0304047
1.2446
1.34822
1.03373
0.872517
0.740791
0.604122
0.463655
0.321786
0.178954
0.0273216
0
0
0.859526
0.929226
0.759815
0.609645
0.465153
0.322167
0.178887
0.0235226
0
0
0.856427
0.922425
0.759209
0.609517
0.465123
0.322162
0.178878
0.0254385
0
0
0.825173
0.91847
0.758266
0.609313
0.465075
0.322155
0.178937
0.0274437
0
0
0.811443
0.909452
0.757052
0.609047
0.465012
0.322147
0.179038
0.0291751
1.26974
1.40587
0.813775
0.900704
0.755588
0.608729
0.464935
0.322137
0.179152
0.0305784
1.26787
1.40583
0.829818
0.892622
0.753989
0.608373
0.464848
0.322124
0.179264
0.0316901
1.26235
1.40387
0.850846
0.886069
0.752361
0.60799
0.464752
0.322109
0.179363
0.0325426
1.2539
1.39952
0.877322
0.881217
0.750783
0.607593
0.46465
0.32209
0.179442
0.0331607
1.24494
1.39321
0.904077
0.877933
0.749318
0.60719
0.464544
0.322067
0.179495
0.0335626
1.23714
1.38609
0.928741
0.875836
0.747988
0.606791
0.464435
0.322042
0.179518
0.03376
1.23107
1.37895
0.950792
0.874608
0.746796
0.606402
0.464326
0.322013
0.17951
0.0337587
1.22709
1.37229
0.970073
0.873991
0.745734
0.60603
0.46422
0.321981
0.179473
0.0335587
1.22556
1.36641
0.986574
0.873769
0.744793
0.605678
0.464117
0.321948
0.179406
0.0331543
1.22652
1.36146
1.00038
0.873762
0.743959
0.605352
0.464019
0.321914
0.179314
0.0325337
1.22986
1.35749
1.01159
0.873825
0.743219
0.605053
0.463929
0.32188
0.179202
0.0316789
1.23544
1.35443
1.02036
0.873844
0.742561
0.604784
0.463848
0.321849
0.179078
0.0305652
1.24278
1.35222
1.02682
0.873731
0.741974
0.604549
0.463777
0.321821
0.178955
0.0291601
1.25029
1.35064
1.03114
0.873438
0.741454
0.604349
0.463718
0.321798
0.178846
0.0274272
1.25536
1.34973
1.03353
0.872997
0.741024
0.604194
0.463674
0.321781
0.178781
0.0254209
1.25715
1.34953
1.0339
0.872452
0.740716
0.604094
0.463646
0.321772
0.178787
0.0235043

VECTORS velocity float
0 0 0
0 0 0
0.687465 -0.0289236 -0.00397608
0.632374 -0.00193028 0.00105146
0.651348 -0.000562311 0.000138923
0.657415 -0.00012988 3.21357e-05
0.658803 -2.86803e-05 7.4322e-06
0.659153 -8.3429e-06 -3.35533e-06
0.659472 4.59661e-06 -5.30612e-05
0.687889 -0.00193019 -0.00177902
0 0 0
0 0 0
-0.0831168 -0.0857024 -0.00329479
0.656486 -0.0109209 0.000853756
0.731933 -0.0021467 0.000221726
0.742743 -0.000455153 5.1146e-05
0.744803 -9.92071e-05 1.1389e-05
0.745292 -2.81471e-05 -2.53835e-06
0.746168 -4.02801e-05 -5.07588e-05
0.759255 -0.00394263 -0.00230339
0 0 0
0 0 0
0.712655 -0.146109 -0.00180021
0.70267 -0.0216723 0.000676492
0.744306 -0.00407682 0.000194531
0.754136 -0.00084829 5.10257e-05
0.756232 -0.000184392 1.1787e-05
0.756735 -5.10725e-05 -2.70824e-06
0.757554 -0.00012861 -6.0411e-05
0.76735 -0.00373603 -0.00239868
0 0 0
0 0 0
-0.0691235 -0.209366 -0.000348909
0.677167 -0.0312747 -6.94812e-05
0.745391 -0.00593866 0.000155119
0.755813 -0.0012359 4.76523e-05
0.757829 -0.000268817 1.11772e-05
0.758302 -7.28396e-05 -3.13813e-06
0.75896 -0.000186776 -6.91723e-05
0.768487 -0.00313143 -0.00242899
0.368121 -0.0153016 -0.0326718
0.720107 0.00868184 -0.0245424
0.713683 -0.241588 0.0114437
0.706153 -0.0412446 0.00121226
0.747735 -0.00770064 0.000205028
0.756254 -0.0015947 4.53633e-05
0.758035 -0.000346767 1.00774e-05
0.758457 -9.17266e-05 -3.68765e-06
0.758974 -0.000210532 -7.35368e-05
0.768728 -0.00252928 -0.00244121
0.454616 -0.0408831 -0.0413066
0.89122 0.0184736 -0.0276742
0.86965 -0.236636 0.0168316
0.732941 -0.0476842 0.00233518
0.750238 -0.00914536 0.000240434
0.756623 -0.00190618 4.0803e-05
0.758116 -0.000415118 8.55628e-06
0.758476 -0.000106889 -4.31536e-06
0.758877 -0.000208254 -7.6166e-05
0.768861 -0.00198537 -0.0024492
0.503279 -0.0554734 -0.0469472
0.920124 0.0181712 -0.0249764
0.902788 -0.220973 0.0128792
0.74759 -0.0512167 0.00207431
0.752392 -0.0102487 0.000202187
0.757014 -0.00216133 3.21691e-05
0.758198 -0.00047183 6.66363e-06
0.758486 -0.000117914 -4.96606e-06
0.758795 -0.000186575 -7.77935e-05
0.768961 -0.00149319 -0.00245456
0.542756 -0.0592284 -0.0512149
0.920887 0.0149805 -0.0219653
0.90577 -0.201243 0.00747571
0.757647 -0.0525299 0.00140252
0.754503 -0.0110126 0.000143638
0.757442 -0.00235381 2.24253e-05
0.758289 -0.000515331 4.58229e-06
0.7585 -0.000124667 -5.60822e-06
0.758737 -0.000150821 -7.88126e-05
0.769034 -0.0010406 -0.00245806
0.57485 -0.0542953 -0.0545904
0.917372 0.0118376 -0.0199402
0.903742 -0.179978 0.00393466
0.766309 -0.0520619 0.000831873
0.756682 -0.011435 8.48274e-05
0.7579 -0.00247896 1.25676e-05
0.758387 -0.000544466 2.41076e-06
0.758517 -0.000127212 -6.22191e-06
0.758701 -0.000105381 -7.94395e-05
0.769083 -0.00061569 -0.00246017
0.599667 -0.0426286 -0.0573611
0.913711 0.00985275 -0.0187854
0.901117 -0.158834 0.00171665
0.773897 -0.0501981 0.000430605