# vtk DataFile Version 2.0
TestTestTest
ASCII

DATASET STRUCTURED_GRID
DIMENSIONS 11 21 11
POINTS 2541 float
0 0 0
0.5 0 0
1 0 0
1.5 0 0
2 0 0
2.5 0 0
3 0 0
3.5 0 0
4 0 0
4.5 0 0
5 0 0
0 0.05 0
0.5 0.05 0
1 0.05 0
1.5 0.05 0
2 0.05 0
2.5 0.05 0
3 0.05 0
3.5 0.05 0
4 0.05 0
4.5 0.05 0
5 0.05 0
0 0.1 0
0.5 0.1 0
1 0.1 0
1.5 0.1 0
2 0.1 0
2.5 0.1 0
3 0.1 0
3.5 0.1 0
4 0.1 0
4.5 0.1 0
5 0.1 0
0 0.15 0
0.5 0.15 0
1 0.15 0
1.5 0.15 0
2 0.15 0
2.5 0.15 0
3 0.15 0
3.5 0.15 0
4 0.15 0
4.5 0.15 0
5 0.15 0
0 0.2 0
0.5 0.2 0
1 0.2 0
1.5 0.2 0
2 0.2 0
2.5 0.2 0
3 0.2 0
3.5 0.2 0
4 0.2 0
4.5 0.2 0
5 0.2 0
0 0.25 0
0.5 0.25 0
1 0.25 0
1.5 0.25 0
2 0.25 0
2.5 0.25 0
3 0.25 0
3.5 0.25 0
4 0.25 0
4.5 0.25 0
5 0.25 0
0 0.3 0
0.5 0.3 0
1 0.3 0
1.5 0.3 0
2 0.3 0
2.5 0.3 0
3 0.3 0
3.5 0.3 0
4 0.3 0
4.5 0.3 0
5 0.3 0
0 0.35 0
0.5 0.35 0
1 0.35 0
1.5 0.35 0
2 0.35 0
2.5 0.35 0
3 0.35 0
3.5 0.35 0
4 0.35 0
4.5 0.35 0
5 0.35 0
0 0.4 0
0.5 0.4 0
1 0.4 0
1.5 0.4 0
2 0.4 0
2.5 0.4 0
3 0.4 0
3.5 0.4 0
4 0.4 0
4.5 0.4 0
5 0.4 0
0 0.45 0
0.5 0.45 0
1 0.45 0
1.5 0.45 0
2 0.45 0
2.5 0.45 0
3 0.45 0
3.5 0.45 0
4 0.45 0
4.5 0.45 0
5 0.45 0
0 0.5 0
0.5 0.5 0
1 0.5 0
1.5 0.5 0
2 0.5 0
2.5 0.5 0
3 0.5 0
3.5 0.5 0
4 0.5 0
4.5 0.5 0
5 0.5 0
0 0.55 0
0.5 0.55 0
1 0.55 0
1.5 0.55 0
2 0.55 0
2.5 0.55 0
3 0.55 0
3.5 0.55 0
4 0.55 0
4.5 0.55 0
5 0.55 0
0 0.6 0
0.5 0.6 0
1 0.6 0
1.5 0.6 0
2 0.6 0
2.5 0.6 0
3 0.6 0
3.5 0.6 0
4 0.6 0
4.5 0.6 0
5 0.6 0
0 0.65 0
0.5 0.65 0
1 0.65 0
1.5 0.65 0
2 0.65 0
2.5 0.65 0
3 0.65 0
3.5 0.65 0
4 0.65 0
4.5 0.65 0
5 0.65 0
0 0.7 0
0.5 0.7 0
1 0.7 0
1.5 0.7 0
2 0.7 0
2.5 0.7 0
3 0.7 0
3.5 0.7 0
4 0.7 0
4.5 0.7 0
5 0.7 0
0 0.75 0
0.5 0.75 0
1 0.75 0
1.5 0.75 0
2 0.75 0
2.5 0.75 0
3 0.75 0
3.5 0.75 0
4 0.75 0
4.5 0.75 0
5 0.75 0
0 0.8 0
0.5 0.8 0
1 0.8 0
1.5 0.8 0
2 0.8 0
2.5 0.8 0
3 0.8 0
3.5 0.8 0
4 0.8 0
4.5 0.8 0
5 0.8 0
0 0.85 0
0.5 0.85 0
1 0.85 0
1.5 0.85 0
2 0.85 0
2.5 0.85 0
3 0.85 0
3.5 0.85 0
4 0.85 0
4.5 0.85 0
5 0.85 0
0 0.9 0
0.5 0.9 0
1 0.9 0
1.5 0.9 0
2 0.9 0
2.5 0.9 0
3 0.9 0
3.5 0.9 0
4 0.9 0
4.5 0.9 0
5 0.9 0
0 0.95 0
0.5 0.95 0
1 0.95 0
1.5 0.95 0
2 0.95 0
2.5 0.95 0
3 0.95 0
3.5 0.95 0
4 0.95 0
4.5 0.95 0
5 0.95 0
0 1 0
0.5 1 0
1 1 0
1.5 1 0
2 1 0
2.5 1 0
3 1 0
3.5 1 0
4 1 0
4.5 1 0
5 1 0
0 0 0.1
0.5 0 0.1
1 0 0.1
1.5 0 0.1
2 0 0.1
2.5 0 0.1
3 0 0.1
3.5 0 0.1
4 0 0.1
4.5 0 0.1
5 0 0.1
0 0.05 0.1
0.5 0.05 0.1
1 0.05 0.1
1.5 0.05 0.1
2 0.05 0.1
2.5 0.05 0.1
3 0.05 0.1
3.5 0.05 0.1
4 0.05 0.1
4.5 0.05 0.1
5 0.05 0.1
0 0.1 0.1
0.5 0.1 0.1
1 0.1 0.1
1.5 0.1 0.1
2 0.1 0.1
2.5 0.1 0.1
3 0.1 0.1
3.5 0.1 0.1
4 0.1 0.1
4.5 0.1 0.1
5 0.1 0.1
0 0.15 0.1
0.5 0.15 0.1
1 0.15 0.1
1.5 0.15 0.1
2 0.15 0.1
2.5 0.15 0.1
3 0.15 0.1
3.5 0.15 0.1
4 0.15 0.1
4.5 0.15 0.1
5 0.15 0.1
0 0.2 0.1
0.5 0.2 0.1
1 0.2 0.1
1.5 0.2 0.1
2 0.2 0.1
2.5 0.2 0.1
3 0.2 0.1
3.5 0.2 0.1
4 0.2 0.1
4.5 0.2 0.1
5 0.2 0.1
0 0.25 0.1
0.5 0.25 0.1
1 0.25 0.1
1.5 0.25 0.1
2 0.25 0.1
2.5 0.25 0.1
3 0.25 0.1
3.5 0.25 0.1
4 0.25 0.1
4.5 0.25 0.1
5 0.25 0.1
0 0.3 0.1
0.5 0.3 0.1
1 0.3 0.1
1.5 0.3 0.1
2 0.3 0.1
2.5 0.3 0.1
3 0.3 0.1
3.5 0.3 0.1
4 0.3 0.1
4.5 0.3 0.1
5 0.3 0.1
0 0.35 0.1
0.5 0.35 0.1
1 0.35 0.1
1.5 0.35 0.1
2 0.35 0.1
2.5 0.35 0.1
3 0.35 0.1
3.5 0.35 0.1
4 0.35 0.1
4.5 0.35 0.1
5 0.35 0.1
0 0.4 0.1
0.5 0.4 0.1
1 0.4 0.1
1.5 0.4 0.1
2 0.4 0.1
2.5 0.4 0.1
3 0.4 0.1
3.5 0.4 0.1
4 0.4 0.1
4.5 0.4 0.1
5 0.4 0.1
0 0.45 0.1
0.5 0.45 0.1
1 0.45 0.1
1.5 0.45 0.1
2 0.45 0.1
2.5 0.45 0.1
3 0.45 0.1
3.5 0.45 0.1
4 0.45 0.1
4.5 0.45 0.1
5 0.45 0.1
0 0.5 0.1
0.5 0.5 0.1
1 0.5 0.1
1.5 0.5 0.1
2 0.5 0.1
2.5 0.5 0.1
3 0.5 0.1
3.5 0.5 0.1
4 0.5 0.1
4.5 0.5 0.1
5 0.5 0.1
0 0.55 0.1
0.5 0.55 0.1
1 0.55 0.1
1.5 0.55 0.1
2 0.55 0.1
2.5 0.55 0.1
3 0.55 0.1
3.5 0.55 0.1
4 0.55 0.1
4.5 0.55 0.1
5 0.55 0.1
0 0.6 0.1
0.5 0.6 0.1
1 0.6 0.1
1.5 0.6 0.1
2 0.6 0.1
2.5 0.6 0.1
3 0.6 0.1
3.5 0.6 0.1
4 0.6 0.1
4.5 0.6 0.1
5 0.6 0.1
0 0.65 0.1
0.5 0.65 0.1
1 0.65 0.1
1.5 0.65 0.1
2 0.65 0.1
2.5 0.65 0.1
3 0.65 0.1
3.5 0.65 0.1
4 0.65 0.1
4.5 0.65 0.1
5 0.65 0.1
0 0.7 0.1
0.5 0.7 0.1
1 0.7 0.1
1.5 0.7 0.1
2 0.7 0.1
2.5 0.7 0.1
3 0.7 0.1
3.5 0.7 0.1
4 0.7 0.1
4.5 0.7 0.1
5 0.7 0.1
0 0.75 0.1
0.5 0.75 0.1
1 0.75 0.1
1.5 0.75 0.1
2 0.75 0.1
2.5 0.75 0.1
3 0.75 0.1
3.5 0.75 0.1
4 0.75 0.1
4.5 0.75 0.1
5 0.75 0.1
0 0.8 0.1
0.5 0.8 0.1
1 0.8 0.1
1.5 0.8 0.1
2 0.8 0.1
2.5 0.8 0.1
3 0.8 0.1
3.5 0.8 0.1
4 0.8 0.1
4.5 0.8 0.1
5 0.8 0.1
0 0.85 0.1
0.5 0.85 0.1
1 0.85 0.1
1.5 0.85 0.1
2 0.85 0.1
2.5 0.85 0.1
3 0.85 0.1
3.5 0.85 0.1
4 0.85 0.1
4.5 0.85 0.1
5 0.85 0.1
0 0.9 0.1
0.5 0.9 0.1
1 0.9 0.1
1.5 0.9 0.1
2 0.9 0.1
2.5 0.9 0.1
3 0.9 0.1
3.5 0.9 0.1
4 0.9 0.1
4.5 0.9 0.1
5 0.9 0.1
0 0.95 0.1
0.5 0.95 0.1
1 0.95 0.1
1.5 0.95 0.1
2 0.95 0.1
2.5 0.95 0.1
3 0.95 0.1
3.5 0.95 0.1
4 0.95 0.1
4.5 0.95 0.1
5 0.95 0.1
0 1 0.1
0.5 1 0.1
1 1 0.1
1.5 1 0.1
2 1 0.1
2.5 1 0.1
3 1 0.1
3.5 1 0.1
4 1 0.1
4.5 1 0.1
5 1 0.1
0 0 0.2
0.5 0 0.2
1 0 0.2
1.5 0 0.2
2 0 0.2
2.5 0 0.2
3 0 0.2
3.5 0 0.2
4 0 0.2
4.5 0 0.2
5 0 0.2
0 0.05 0.2
0.5 0.05 0.2
1 0.05 0.2
1.5 0.05 0.2
2 0.05 0.2
2.5 0.05 0.2
3 0.05 0.2
3.5 0.05 0.2
4 0.05 0.2
4.5 0.05 0.2
5 0.05 0.2
0 0.1 0.2
0.5 0.1 0.2
1 0.1 0.2
1.5 0.1 0.2
2 0.1 0.2
2.5 0.1 0.2
3 0.1 0.2
3.5 0.1 0.2
4 0.1 0.2
4.5 0.1 0.2
5 0.1 0.2
0 0.15 0.2
0.5 0.15 0.2
1 0.15 0.2
1.5 0.15 0.2
2 0.15 0.2
2.5 0.15 0.2
3 0.15 0.2
3.5 0.15 0.2
4 0.15 0.2
4.5 0.15 0.2
5 0.15 0.2
0 0.2 0.2
0.5 0.2 0.2
1 0.2 0.2
1.5 0.2 0.2
2 0.2 0.2
2.5 0.2 0.2
3 0.2 0.2
3.5 0.2 0.2
4 0.2 0.2
4.5 0.2 0.2
5 0.2 0.2
0 0.25 0.2
0.5 0.25 0.2
1 0.25 0.2
1.5 0.25 0.2
2 0.25 0.2
2.5 0.25 0.2
3 0.25 0.2
3.5 0.25 0.2
4 0.25 0.2
4.5 0.25 0.2
5 0.25 0.2
0 0.3 0.2
0.5 0.3 0.2
1 0.3 0.2
1.5 0.3 0.2
2 0.3 0.2
2.5 0.3 0.2
3 0.3 0.2
3.5 0.3 0.2
4 0.3 0.2
4.5 0.3 0.2
5 0.3 0.2
0 0.35 0.2
0.5 0.35 0.2
1 0.35 0.2
1.5 0.35 0.2
2 0.35 0.2
2.5 0.35 0.2
3 0.35 0.2
3.5 0.35 0.2
4 0.35 0.2
4.5 0.35 0.2
5 0.35 0.2
0 0.4 0.2
0.5 0.4 0.2
1 0.4 0.2
1.5 0.4 0.2
2 0.4 0.2
2.5 0.4 0.2
3 0.4 0.2
3.5 0.4 0.2
4 0.4 0.2
4.5 0.4 0.2
5 0.4 0.2
0 0.45 0.2
0.5 0.45 0.2
1 0.45 0.2
1.5 0.45 0.2
2 0.45 0.2
2.5 0.45 0.2
3 0.45 0.2
3.5 0.45 0.2
4 0.45 0.2
4.5 0.45 0.2
5 0.45 0.2
0 0.5 0.2
0.5 0.5 0.2
1 0.5 0.2
1.5 0.5 0.2
2 0.5 0.2
2.5 0.5 0.2
3 0.5 0.2
3.5 0.5 0.2
4 0.5 0.2
4.5 0.5 0.2
5 0.5 0.2
0 0.55 0.2
0.5 0.55 0.2
1 0.55 0.2
1.5 0.55 0.2
2 0.55 0.2
2.5 0.55 0.2
3 0.55 0.2
3.5 0.55 0.2
4 0.55 0.2
4.5 0.55 0.2
5 0.55 0.2
0 0.6 0.2
0.5 0.6 0.2
1 0.6 0.2
1.5 0.6 0.2
2 0.6 0.2
2.5 0.6 0.2
3 0.6 0.2
3.5 0.6 0.2
4 0.6 0.2
4.5 0.6 0.2
5 0.6 0.2
0 0.65 0.2
0.5 0.65 0.2
1 0.65 0.2
1.5 0.65 0.2
2 0.65 0.2
2.5 0.65 0.2
3 0.65 0.2
3.5 0.65 0.2
4 0.65 0.2
4.5 0.65 0.2
5 0.65 0.2
0 0.7 0.2
0.5 0.7 0.2
1 0.7 0.2
1.5 0.7 0.2
2 0.7 0.2
2.5 0.7 0.2
3 0.7 0.2
3.5 0.7 0.2
4 0.7 0.2
4.5 0.7 0.2
5 0.7 0.2
0 0.75 0.2
0.5 0.75 0.2
1 0.75 0.2
1.5 0.75 0.2
2 0.75 0.2
2.5 0.75 0.2
3 0.75 0.2
3.5 0.75 0.2
4 0.75 0.2
4.5 0.75 0.2
5 0.75 0.2
0 0.8 0.2
0.5 0.8 0.2
1 0.8 0.2
1.5 0.8 0.2
2 0.8 0.2
2.5 0.8 0.2
3 0.8 0.2
3.5 0.8 0.2
4 0.8 0.2
4.5 0.8 0.2
5 0.8 0.2
0 0.85 0.2
0.5 0.85 0.2
1 0.85 0.2
1.5 0.85 0.2
2 0.85 0.2
2.5 0.85 0.2
3 0.85 0.2
3.5 0.85 0.2
4 0.85 0.2
4.5 0.85 0.2
5 0.85 0.2
0 0.9 0.2
0.5 0.9 0.2
1 0.9 0.2
1.5 0.9 0.2
2 0.9 0.2
2.5 0.9 0.2
3 0.9 0.2
3.5 0.9 0.2
4 0.9 0.2
4.5 0.9 0.2
5 0.9 0.2
0 0.95 0.2
0.5 0.95 0.2
1 0.95 0.2
1.5 0.95 0.2
2 0.95 0.2
2.5 0.95 0.2
3 0.95 0.2
3.5 0.95 0.2
4 0.95 0.2
4.5 0.95 0.2
5 0.95 0.2
0 1 0.2
0.5 1 0.2
1 1 0.2
1.5 1 0.2
2 1 0.2
2.5 1 0.2
3 1 0.2
3.5 1 0.2
4 1 0.2
4.5 1 0.2
5 1 0.2
0 0 0.3
0.5 0 0.3
1 0 0.3
1.5 0 0.3
2 0 0.3
2.5 0 0.3
3 0 0.3
3.5 0 0.3
4 0 0.3
4.5 0 0.3
5 0 0.3
0 0.05 0.3
0.5 0.05 0.3
1 0.05 0.3
1.5 0.05 0.3
2 0.05 0.3
2.5 0.05 0.3
3 0.05 0.3
3.5 0.05 0.3
4 0.05 0.3
4.5 0.05 0.3
5 0.05 0.3
0 0.1 0.3
0.5 0.1 0.3
1 0.1 0.3
1.5 0.1 0.3
2 0.1 0.3
2.5 0.1 0.3
3 0.1 0.3
3.5 0.1 0.3
4 0.1 0.3
4.5 0.1 0.3
5 0.1 0.3
0 0.15 0.3
0.5 0.15 0.3
1 0.15 0.3
1.5 0.15 0.3
2 0.15 0.3
2.5 0.15 0.3
3 0.15 0.3
3.5 0.15 0.3
4 0.15 0.3
4.5 0.15 0.3
5 0.15 0.3
0 0.2 0.3
0.5 0.2 0.3
1 0.2 0.3
1.5 0.2 0.3
2 0.2 0.3
2.5 0.2 0.3
3 0.2 0.3
3.5 0.2 0.3
4 0.2 0.3
4.5 0.2 0.3
5 0.2 0.3
0 0.25 0.3
0.5 0.25 0.3
1 0.25 0.3
1.5 0.25 0.3
2 0.25 0.3
2.5 0.25 0.3
3 0.25 0.3
3.5 0.25 0.3
4 0.25 0.3
4.5 0.25 0.3
5 0.25 0.3
0 0.3 0.3
0.5 0.3 0.3
1 0.3 0.3
1.5 0.3 0.3
2 0.3 0.3
2.5 0.3 0.3
3 0.3 0.3
3.5 0.3 0.3
4 0.3 0.3
4.5 0.3 0.3
5 0.3 0.3
0 0.35 0.3
0.5 0.35 0.3
1 0.35 0.3
1.5 0.35 0.3
2 0.35 0.3
2.5 0.35 0.3
3 0.35 0.3
3.5 0.35 0.3
4 0.35 0.3
4.5 0.35 0.3
5 0.35 0.3
0 0.4 0.3
0.5 0.4 0.3
1 0.4 0.3
1.5 0.4 0.3
2 0.4 0.3
2.5 0.4 0.3
3 0.4 0.3
3.5 0.4 0.3
4 0.4 0.3
4.5 0.4 0.3
5 0.4 0.3
0 0.45 0.3
0.5 0.45 0.3
1 0.45 0.3
1.5 0.45 0.3
2 0.45 0.3
2.5 0.45 0.3
3 0.45 0.3
3.5 0.45 0.3
4 0.45 0.3
4.5 0.45 0.3
5 0.45 0.3
0 0.5 0.3
0.5 0.5 0.3
1 0.5 0.3
1.5 0.5 0.3
2 0.5 0.3
2.5 0.5 0.3
3 0.5 0.3
3.5 0.5 0.3
4 0.5 0.3
4.5 0.5 0.3
5 0.5 0.3
0 0.55 0.3
0.5 0.55 0.3
1 0.55 0.3
1.5 0.55 0.3
2 0.55 0.3
2.5 0.55 0.3
3 0.55 0.3
3.5 0.55 0.3
4 0.55 0.3
4.5 0.55 0.3
5 0.55 0.3
0 0.6 0.3
0.5 0.6 0.3
1 0.6 0.3
1.5 0.6 0.3
2 0.6 0.3
2.5 0.6 0.3
3 0.6 0.3
3.5 0.6 0.3
4 0.6 0.3
4.5 0.6 0.3
5 0.6 0.3
0 0.65 0.3
0.5 0.65 0.3
1 0.65 0.3
1.5 0.65 0.3
2 0.65 0.3
2.5 0.65 0.3
3 0.65 0.3
3.5 0.65 0.3
4 0.65 0.3
4.5 0.65 0.3
5 0.65 0.3
0 0.7 0.3
0.5 0.7 0.3
1 0.7 0.3
1.5 0.7 0.3
2 0.7 0.3
2.5 0.7 0.3
3 0.7 0.3
3.5 0.7 0.3
4 0.7 0.3
4.5 0.7 0.3
5 0.7 0.3
0 0.75 0.3
0.5 0.75 0.3
1 0.75 0.3
1.5 0.75 0.3
2 0.75 0.3
2.5 0.75 0.3
3 0.75 0.3
3.5 0.75 0.3
4 0.75 0.3
4.5 0.75 0.3
5 0.75 0.3
0 0.8 0.3
0.5 0.8 0.3
1 0.8 0.3
1.5 0.8 0.3
2 0.8 0.3
2.5 0.8 0.3
3 0.8 0.3
3.5 0.8 0.3
4 0.8 0.3
4.5 0.8 0.3
5 0.8 0.3
0 0.85 0.3
0.5 0.85 0.3
1 0.85 0.3
1.5 0.85 0.3
2 0.85 0.3
2.5 0.85 0.3
3 0.85 0.3
3.5 0.85 0.3
4 0.85 0.3
4.5 0.85 0.3
5 0.85 0.3
0 0.9 0.3
0.5 0.9 0.3
1 0.9 0.3
1.5 0.9 0.3
2 0.9 0.3
2.5 0.9 0.3
3 0.9 0.3
3.5 0.9 0.3
4 0.9 0.3
4.5 0.9 0.3
5 0.9 0.3
0 0.95 0.3
0.5 0.95 0.3
1 0.95 0.3
1.5 0.95 0.3
2 0.95 0.3
2.5 0.95 0.3
3 0.95 0.3
3.5 0.95 0.3
4 0.95 0.3
4.5 0.95 0.3
5 0.95 0.3
0 1 0.3
0.5 1 0.3
1 1 0.3
1.5 1 0.3
2 1 0.3
2.5 1 0.3
3 1 0.3
3.5 1 0.3
4 1 0.3
4.5 1 0.3
5 1 0.3
0 0 0.4
[...]
CELL_DATA 2000
SCALARS pressure float 1
LOOKUP_TABLE default
0
0
0.85392
0.923013
0.754677
0.605409
0.461894
0.319907
0.177639
0.0234478
0
0
0.850783
0.91628
0.754074
0.605281
0.461864
0.319902
0.177627
0.0253145
0
0
0.820013
0.912376
0.753135
0.605078
0.461816
0.319895
0.177685
0.0272918
0
0
0.806294
0.903445
0.751916
0.604809
0.461752
0.319887
0.177784
0.0290062
1.25061
1.38773
0.808342
0.894746
0.75044
0.604488
0.461675
0.319876
0.177898
0.0303956
1.24885
1.38805
0.82372
0.886626
0.748823
0.604127
0.461587
0.319863
0.178009
0.0314961
1.24348
1.38662
0.844091
0.879981
0.747171
0.60374
0.46149
0.319848
0.178108
0.0323397
1.23521
1.38284
0.86999
0.875017
0.745566
0.603337
0.461387
0.319829
0.178186
0.0329513
1.22644
1.37702
0.896333
0.871626
0.744072
0.602929
0.461279
0.319806
0.178238
0.0333489
1.21881
1.37029
0.920673
0.869432
0.742715
0.602523
0.46117
0.31978
0.178261
0.0335442
1.21289
1.36345
0.942463
0.868117
0.741496
0.602129
0.46106
0.319751
0.178254
0.0335429
1.20902
1.35703
0.961539
0.867422
0.74041
0.60175
0.460952
0.319719
0.178216
0.033345
1.20757
1.35135
0.977882
0.867131
0.739445
0.601393
0.460847
0.319686
0.17815
0.0329449
1.20856
1.34658
0.991564
0.867065
0.73859
0.601061
0.460749
0.319651
0.178058
0.0323308
1.2119
1.34275
1.00269
0.867078
0.737832
0.600757
0.460658
0.319618
0.177947
0.0314849
1.21744
1.33982
1.01139
0.867056
0.737158
0.600485
0.460576
0.319586
0.177824
0.0303824
1.2247
1.3377
1.01781
0.866909
0.736557
0.600246
0.460504
0.319558
0.177701
0.0289912
1.23212
1.33616
1.02209
0.866592
0.736028
0.600044
0.460445
0.319535
0.177594
0.0272753
1.2371
1.33524
1.02446
0.866139
0.735593
0.599888
0.4604
0.319518
0.17753
0.0252969
1.2388
1.335
1.02482
0.865594
0.735285
0.599787
0.460373
0.319509
0.177539
0.0234296
0
0
0.86286
0.921676
0.754798
0.605394
0.461888
0.319918
0.177803
0.0272165
0
0
0.857701
0.915384
0.753895
0.60523
0.461852
0.319909
0.177721
0.0302408
0
0
0.827476
0.911436
0.752876
0.605009
0.461801
0.3199
0.17783
0.0325388
0
0
0.830932
0.90495
0.75158
0.604737
0.461737
0.319893
0.177962
0.0342708
1.23803
1.3836
0.787328
0.895369
0.750092
0.604421
0.461662
0.319883
0.178093
0.0356735
1.23583
1.40056
0.794852
0.885025
0.748473
0.604071
0.461576
0.319872
0.178214
0.0367854
1.23166
1.39968
0.823085
0.877533
0.746851
0.603696
0.461482
0.319858
0.178319
0.0376382
1.22608
1.39145
0.853965
0.872923
0.745319
0.603305
0.461381
0.31984
0.178401
0.0382564
1.21986
1.38164
0.884013
0.870016
0.743904
0.602909
0.461276
0.319818
0.178455
0.0386582
1.21387
1.37148
0.91188
0.86823
0.742612
0.602515
0.461169
0.319793
0.178479
0.0388556
1.20924
1.3618
0.936352
0.867265
0.741448
0.602132
0.461062
0.319765
0.178472
0.0388543
1.20611
1.35336
0.95736
0.866856
0.740409
0.601765
0.460957
0.319733
0.178434
0.0386544
1.20448
1.3466
0.975132
0.866793
0.739485
0.601418
0.460855
0.3197
0.178365
0.0382501
1.20439
1.34163
0.989876
0.866906
0.738665
0.601096
0.460759
0.319666
0.17827
0.0376295
1.20619
1.33827
1.00177
0.86706
0.737936
0.600801
0.46067
0.319632
0.178153
0.0367746
1.20994
1.33605
1.01097
0.867147
0.737287
0.600535
0.46059
0.3196
0.17802
0.0356607
1.21462
1.33443
1.01766
0.867091
0.736707
0.600301
0.46052
0.319571
0.17788
0.0342563
1.21949
1.33311
1.02201
0.866836
0.736193
0.600102
0.460461
0.319547
0.17774
0.0325228
1.22364
1.33252
1.02434
0.866344
0.735732
0.599936
0.460413
0.319531
0.177626
0.0302236
1.22655
1.33372
1.02462
0.865634
0.735351
0.599814
0.460381
0.319524
0.177704
0.0271985
0
0
0.873418
0.923239
0.755063
0.605384
0.461881
0.319939
0.178084
0.0302751
0
0
0.867666
0.91768
0.754104
0.605207
0.461843
0.31993
0.178015
0.0335526
0
0
0.841616
0.914611
0.75308
0.604975
0.461789
0.319922
0.17815
0.036016
0
0
0.847107
0.909506
0.751835
0.604705
0.461726
0.319917
0.178304
0.0378312
1.22451
1.37353
0.781519
0.900212
0.750391
0.604393
0.461651
0.319909
0.178451
0.0392828
1.2224
1.40705
0.765511
0.888132
0.748753
0.604045
0.461567
0.3199
0.178585
0.0404269
1.22134
1.41741
0.789419
0.877899
0.747019
0.603673
0.461475
0.319887
0.178697
0.0413005
1.22368
1.4101
0.829133
0.871238
0.745342
0.603286
0.461377
0.31987
0.178784
0.0419321
1.22807
1.39303
0.866729
0.86773
0.743833
0.602895
0.461275
0.31985
0.178842
0.042342
1.23247
1.37405
0.899129
0.866173
0.742517
0.602509
0.46117
0.319826
0.178867
0.042543
1.23549
1.35746
0.927222
0.865641
0.741368
0.602133
0.461066
0.319798
0.17886
0.0425418
1.23608
1.3447
0.951256
0.865657
0.740359
0.601775
0.460963
0.319767
0.17882
0.0423383
1.23431
1.33589
0.971433
0.865958
0.739469
0.601437
0.460864
0.319734
0.178749
0.041926
1.23014
1.33078
0.988061
0.866374
0.738683
0.601123
0.46077
0.319699
0.178649
0.0412922
1.22386
1.32889
1.00138
0.86678
0.737985
0.600836
0.460683
0.319665
0.178525
0.0404164
1.21689
1.32926
1.01144
0.867074
0.737366
0.600577
0.460605
0.319632
0.178381
0.0392704
1.21105
1.33032
1.01832
0.867169
0.736815
0.60035
0.460536
0.319602
0.178224
0.0378171
1.20854
1.33089
1.0225
0.866989
0.736317
0.600153
0.460477
0.319576
0.178062
0.0360005
1.21006
1.3314
1.02469
0.866499
0.735847
0.599981
0.460428
0.319559
0.17792
0.0335358
1.21305
1.33337
1.02502
0.865753
0.735443
0.599851
0.460393
0.319549
0.177986
0.0302574
0
0
0.879336
0.925289
0.75534
0.605386
0.461877
0.31996
0.178336
0.0322205
0
0
0.874099
0.920007
0.754381
0.605207
0.461838
0.319953
0.178271
0.0355525
0
0
0.848541
0.917522
0.753382
0.604975
0.461785
0.319946
0.178416
0.0380682
0
0
0.851245
0.913039
0.752193
0.604708
0.461722
0.319942
0.178581
0.0399234
1.21751
1.37693
0.781552
0.903992
0.750802
0.604402
0.461648
0.319936
0.178737
0.0414047
1.21656
1.41415
0.75386
0.891504
0.749187
0.60406
0.461565
0.319927
0.178877
0.0425705
1.21928
1.42942
0.76302
0.879676
0.747399
0.60369
0.461474
0.319916
0.178995
0.0434598
1.22976
1.4242
0.798391
0.870968
0.745589
0.6033
0.461377
0.3199
0.179086
0.0441023
1.24687
1.4036
0.843503
0.866171
0.743924
0.602905
0.461276
0.31988
0.179146
0.0445187
1.26533
1.37705
0.884522
0.864206
0.742486
0.602514
0.461173
0.319857
0.179173
0.0447229
1.27933
1.35179
0.917961
0.863742
0.741269
0.602137
0.46107
0.319829
0.179166
0.0447217
1.28559
1.33217
0.94554
0.864021
0.740233
0.601778
0.460969
0.319799
0.179125
0.0445151
1.28373
1.32019
0.968631
0.864656
0.739343
0.601442
0.460871
0.319765
0.179052
0.0440963
1.2736
1.31561
0.98736
0.865436
0.738575
0.601131
0.460778
0.319731
0.178948
0.0434517
1.2559
1.31654
1.00164
0.866193
0.737918
0.600849
0.460692
0.319696
0.178818
0.0425602
1.23459
1.32036
1.01189
0.866769
0.737346
0.600597
0.460615
0.319662
0.178667
0.0413925
1.21621
1.32494
1.01878
0.867048
0.736832
0.600374
0.460546
0.319631
0.178501
0.0399095
1.20587
1.32855
1.02293
0.866962
0.736353
0.600179
0.460488
0.319604
0.178329
0.0380529
1.2039
1.33072
1.02509
0.866513
0.735891
0.600006
0.460438
0.319585
0.178178
0.035536
1.20581
1.33336
1.02548
0.865786
0.735486
0.599876
0.460403
0.319575
0.178238
0.032203
0
0
0.881236
0.926497
0.755512
0.605391
0.461876
0.319974
0.178478
0.0331556
0
0
0.875941
0.921326
0.754557
0.605212
0.461837
0.319967
0.178415
0.036501
0
0
0.849888
0.919091
0.753574
0.60498
0.461783
0.319961
0.178563
0.0390342
0
0
0.851545
0.914868
0.752411
0.604716
0.461721
0.319957
0.178731
0.0409053
1.21506
1.38123
0.780691
0.905923
0.751047
0.604413
0.461648
0.319951
0.178891
0.0423997
1.21498
1.41946
0.75066
0.893316
0.749451
0.604074
0.461565
0.319944
0.179035
0.0435757
1.22062
1.43545
0.754885
0.881144
0.747659
0.603707
0.461475
0.319932
0.179156
0.0444728
1.23687
1.43033
0.783275
0.871672
0.745808
0.603318
0.461379
0.319917
0.179248
0.0451206
1.26175
1.40854
0.825021
0.865705
0.744051
0.60292
0.461278
0.319898
0.17931
0.0455406
1.28881
1.37863
0.869957
0.862866
0.742498
0.602522
0.461175
0.319875
0.179337
0.0457467
1.31051
1.34889
0.910531
0.862185
0.741185
0.602137
0.461072
0.319848
0.17933
0.0457455
1.3208
1.32492
0.943416
0.862673
0.740098
0.601773
0.460971
0.319817
0.179289
0.045537
1.31868
1.31046
0.968653
0.863672
0.739205
0.601436
0.460874
0.319784
0.179214
0.0451147
1.30412
1.30585
0.987655
0.864788
0.738472
0.60113
0.460782
0.319749
0.179109
0.0444647
1.2786
1.30833
1.00181
0.865794
0.737855
0.600852
0.460697
0.319714
0.178976
0.0435655
1.2488
1.31459
1.01207
0.866541
0.737315
0.600604
0.46062
0.31968
0.178822
0.0423876
1.22279
1.32158
1.019
0.866929
0.736822
0.600383
0.460552
0.319648
0.178653
0.0408916
1.20685
1.32706
1.02317
0.866905
0.736356
0.60019
0.460493
0.319621
0.178476
0.039019
1.2021
1.33034
1.02533
0.866487
0.7359
0.600018
0.460443
0.319601
0.178322
0.0364846
1.20321
1.33343
1.02577
0.865777
0.735499
0.599887
0.460408
0.31959
0.178381
0.0331383
0
0
0.881236
0.926497
0.755512
0.605391
0.461876
0.319974
0.178478
0.0331556
0
0
0.875941
0.921326
0.754557
0.605212
0.461837
0.319967
0.178415
0.036501
0
0
0.849888
0.919091
0.753574
0.60498
0.461783
0.319961
0.178563
0.0390342
0
0
0.851545
0.914868
0.752411
0.604716
0.461721
0.319957
0.178731
0.0409053
1.21506
1.38123
0.780691
0.905923
0.751047
0.604413
0.461648
0.319951
0.178891
0.0423997
1.21498
1.41946
0.75066
0.893316
0.749451
0.604074
0.461565
0.319944
0.179035
0.0435757
1.22062
1.43545
0.754885
0.881144
0.747659
0.603707
0.461475
0.319932
0.179156
0.0444728
1.23687
1.43033
0.783275
0.871672
0.745808
0.603318
0.461379
0.319917
0.179248
0.0451206
1.26175
1.40854
0.825021
0.865705
0.744051
0.60292
0.461278
0.319898
0.17931
0.0455406
1.28881
1.37863
0.869957
0.862866
0.742498
0.602522
0.461175
0.319875
0.179337
0.0457467
1.31051
1.34889
0.910531
0.862185
0.741185
0.602137
0.461072
0.319848
0.17933
0.0457455
1.3208
1.32492
0.943416
0.862673
0.740098
0.601773
0.460971
0.319817
0.179289
0.045537
1.31868
1.31046
0.968653
0.863672
0.739205
0.601436
0.460874
0.319784
0.179214
0.0451147
1.30412
1.30585
0.987655
0.864788
0.738472
0.60113
0.460782
0.319749
0.179109
0.0444647
1.2786
1.30833
1.00181
0.865794
0.737855
0.600852
0.460697
0.319714
0.178976
0.0435655
1.2488
1.31459
1.01207
0.866541
0.737315
0.600604
0.46062
0.31968
0.178822
0.0423876
1.22279
1.32158
1.019
0.866929
0.736822
0.600383
0.460552
0.319648
0.178653
0.0408916
1.20685
1.32706
1.02317
0.866905
0.736356
0.60019
0.460493
0.319621
0.178476
0.039019
1.2021
1.33034
1.02533
0.866487
0.7359
0.600018
0.460443
0.319601
0.178322
0.0364846
1.20321
1.33343
1.02577
0.865777
0.735499
0.599887
0.460408
0.31959
0.178381
0.0331383
0
0
0.879336
0.925289
0.75534
0.605386
0.461877
0.31996
0.178336
0.0322205
0
0
0.874099
0.920007
0.754381
0.605207
0.461838
0.319953
0.178271
0.0355525
0
0
0.848541
0.917522
0.753382
0.604975
0.461785
0.319946
0.178416
0.0380682
0
0
0.851245
0.913039
0.752193
0.604708
0.461722
0.319942
0.178581
0.0399234
1.21751
1.37693
0.781552
0.903992
0.750802
0.604402
0.461648
0.319936
0.178737
0.0414047
1.21656
1.41415
0.75386
0.891504
0.749187
0.60406
0.461565
0.319927
0.178877
0.0425705
1.21928
1.42942
0.76302
0.879676
0.747399
0.60369
0.461474
0.319916
0.178995
0.0434598
1.22976
1.4242
0.798391
0.870968
0.745589
0.6033
0.461377
0.3199
0.179086
0.0441023
1.24687
1.4036
0.843503
0.866171
0.743924
0.602905
0.461276
0.31988
0.179146
0.0445187
1.26533
1.37705
0.884522
0.864206
0.742486
0.602514
0.461173
0.319857
0.179173
0.0447229
1.27933
1.35179
0.917961
0.863742
0.741269
0.602137
0.46107
0.319829
0.179166
0.0447217
1.28559
1.33217
0.94554
0.864021
0.740233
0.601778
0.460969
0.319799
0.179125
0.0445151
1.28373
1.32019
0.968631
0.864656
0.739343
0.601442
0.460871
0.319765
0.179052
0.0440963
1.2736
1.31561
0.98736
0.865436
0.738575
0.601131
0.460778
0.319731
0.178948
0.0434517
1.2559
1.31654
1.00164
0.866193
0.737918
0.600849
0.460692
0.319696
0.178818
0.0425602
1.23459
1.32036
1.01189
0.866769
0.737346
0.600597
0.460615
0.319662
0.178667
0.0413925
1.21621
1.32494
1.01878
0.867048
0.736832
0.600374
0.460546
0.319631
0.178501
0.0399095
1.20587
1.32855
1.02293
0.866962
0.736353
0.600179
0.460488
0.319604
0.178329
0.0380529
1.2039
1.33072
1.02509
0.866513
0.735891
0.600006
0.460438
0.319585
0.178178
0.035536
1.20581
1.33336
1.02548
0.865786
0.735486
0.599876
0.460403
0.319575
0.178238
0.032203
0
0
0.873418
0.923239
0.755063
0.605384
0.461881
0.319939
0.178084
0.0302751
0
0
0.867666
0.91768
0.754104
0.605207
0.461843
0.31993
0.178015
0.0335526
0
0
0.841616
0.914611
0.75308
0.604975
0.461789
0.319922
0.17815
0.036016
0
0
0.847107
0.909506
0.751835
0.604705
0.461726
0.319917
0.178304
0.0378312
1.22451
1.37353
0.781519
0.900212
0.750391
0.604393
0.461651
0.319909
0.178451
0.0392828
1.2224
1.40705
0.765511
0.888132
0.748753
0.604045
0.461567
0.3199
0.178585
0.0404269
1.22134
1.41741
0.789419
0.877899
0.747019
0.603673
0.461475
0.319887
0.178697
0.0413005
1.22368
1.4101
0.829133
0.871238
0.745342
0.603286
0.461377
0.31987
0.178784
0.0419321
1.22807
1.39303
0.866729
0.86773
0.743833
0.602895
0.461275
0.31985
0.178842
0.042342
1.23247
1.37405
0.899129
0.866173
0.742517
0.602509
0.46117
0.319826
0.178867
0.042543
1.23549
1.35746
0.927222
0.865641
0.741368
0.602133
0.461066
0.319798
0.17886
0.0425418
1.23608
1.3447
0.951256
0.865657
0.740359
0.601775
0.460963
0.319767
0.17882
0.0423383
1.23431
1.33589
0.971433
0.865958
0.739469
0.601437
0.460864
0.319734
0.178749
0.041926
1.23014
1.33078
0.988061
0.866374
0.738683
0.601123
0.46077
0.319699
0.178649
0.0412922
1.22386
1.32889
1.00138
0.86678
0.737985
0.600836
0.460683
0.319665
0.178525
0.0404164
1.21689
1.32926
1.01144
0.867074
0.737366
0.600577
0.460605
0.319632
0.178381
0.0392704
1.21105
1.33032
1.01832
0.867169
0.736815
0.60035
0.460536
0.319602
0.178224
0.0378171
1.20854
1.33089
1.0225
0.866989
0.736317
0.600153
0.460477
0.319576
0.178062
0.0360005
1.21006
1.3314
1.02469
0.866499
0.735847
0.599981
0.460428
0.319559
0.17792
0.0335358
1.21305
1.33337
1.02502
0.865753
0.735443
0.599851
0.460393
0.319549
0.177986
0.0302574
0
0
0.86286
0.921676
0.754798
0.605394
0.461888
0.319918
0.177803
0.0272165
0
0
0.857701
0.915384
0.753895
0.60523
0.461852
0.319909
0.177721
0.0302408
0
0
0.827476
0.911436
0.752876
0.605009
0.461801
0.3199
0.17783
0.0325388
0
0
0.830932
0.90495
0.75158
0.604737
0.461737
0.319893
0.177962
0.0342708
1.23803
1.3836
0.787328
0.895369
0.750092
0.604421
0.461662
0.319883
0.178093
0.0356735
1.23583
1.40056
0.794852
0.885025
0.748473
0.604071
0.461576
0.319872
0.178214
0.0367854
1.23166
1.39968
0.823085
0.877533
0.746851
0.603696
0.461482
0.319858
0.178319
0.0376382
1.22608
1.39145
0.853965
0.872923
0.745319
0.603305
0.461381
0.31984
0.178401
0.0382564
1.21986
1.38164
0.884013
0.870016
0.743904
0.602909
0.461276
0.319818
0.178455
0.0386582
1.21387
1.37148
0.91188
0.86823
0.742612
0.602515
0.461169
0.319793
0.178479
0.0388556
1.20924
1.3618
0.936352
0.867265
0.741448
0.602132
0.461062
0.319765
0.178472
0.0388543
1.20611
1.35336
0.95736
0.866856
0.740409
0.601765
0.460957
0.319733
0.178434
0.0386544
1.20448
1.3466
0.975132
0.866793
0.739485
0.601418
0.460855
0.3197
0.178365
0.0382501
1.20439
1.34163
0.989876
0.866906
0.738665
0.601096
0.460759
0.319666
0.17827
0.0376295
1.20619
1.33827
1.00177
0.86706
0.737936
0.600801
0.46067
0.319632
0.178153
0.0367746
1.20994
1.33605
1.01097
0.867147
0.737287
0.600535
0.46059
0.3196
0.17802
0.0356607
1.21462
1.33443
1.01766
0.867091
0.736707
0.600301
0.46052
0.319571
0.17788
0.0342563
1.21949
1.33311
1.02201
0.866836
0.736193
0.600102
0.460461
0.319547
0.17774
0.0325228
1.22364
1.33252
1.02434
0.866344
0.735732
0.599936
0.460413
0.319531
0.177626
0.0302236
1.22655
1.33372
1.02462
0.865634
0.735351
0.599814
0.460381
0.319524
0.177704
0.0271985
0
0
0.85392
0.923013
0.754677
0.605409
0.461894
0.319907
0.177639
0.0234478
0
0
0.850783
0.91628
0.754074
0.605281
0.461864
0.319902
0.177627
0.0253145
0
0
0.820013
0.912376
0.753135
0.605078
0.461816
0.319895
0.177685
0.0272918
0
0
0.806294
0.903445
0.751916
0.604809
0.461752
0.319887
0.177784
0.0290062
1.25061
1.38773
0.808342
0.894746
0.75044
0.604488
0.461675
0.319876
0.177898
0.0303956
1.24885
1.38805
0.82372
0.886626
0.748823
0.604127
0.461587
0.319863
0.178009
0.0314961
1.24348
1.38662
0.844091
0.879981
0.747171
0.60374
0.46149
0.319848
0.178108
0.0323397
1.23521
1.38284
0.86999
0.875017
0.745566
0.603337
0.461387
0.319829
0.178186
0.0329513
1.22644
1.37702
0.896333
0.871626
0.744072
0.602929
0.461279
0.319806
0.178238
0.0333489
1.21881
1.37029
0.920673
0.869432
0.742715
0.602523
0.46117
0.31978
0.178261
0.0335442
1.21289
1.36345
0.942463
0.868117
0.741496
0.602129
0.46106
0.319751
0.178254
0.0335429
1.20902
1.35703
0.961539
0.867422
0.74041
0.60175
0.460952
0.319719
0.178216
0.033345
1.20757
1.35135
0.977882
0.867131
0.739445
0.601393
0.460847
0.319686
0.17815
0.0329449
1.20856
1.34658
0.991564
0.867065
0.73859
0.601061
0.460749
0.319651
0.178058
0.0323308
1.2119
1.34275
1.00269
0.867078
0.737832
0.600757
0.460658
0.319618
0.177947
0.0314849
1.21744
1.33982
1.01139
0.867056
0.737158
0.600485
0.460576
0.319586
0.177824
0.0303824
1.2247
1.3377
1.01781
0.866909
0.736557
0.600246
0.460504
0.319558
0.177701
0.0289912
1.23212
1.33616
1.02209
0.866592
0.736028
0.600044
0.460445
0.319535
0.177594
0.0272753
1.2371
1.33524
1.02446
0.866139
0.735593
0.599888
0.4604
0.319518
0.17753
0.0252969
1.2388
1.335
1.02482
0.865594
0.735285
0.599787
0.460373
0.319509
0.177539
0.0234296

VECTORS velocity float
0 0 0
0 0 0
0.680315 -0.0286056 -0.00423806
0.627988 -0.00185832 0.00103649
0.646159 -0.000546648 0.000139204
0.652031 -0.00012655 3.28212e-05
0.653373 -2.78744e-05 7.65439e-06
0.653713 -8.22247e-06 -3.44791e-06
0.654007 7.22792e-06 -5.34592e-05
0.683233 -0.00198299 -0.00184011
0 0 0
0 0 0
-0.0795727 -0.0847811 -0.00351974
0.653183 -0.0107876 0.000843365
0.728783 -0.00211801 0.000227908
0.739571 -0.000447789 5.32733e-05
0.741607 -9.7244e-05 1.19121e-05
0.742089 -2.78365e-05 -2.55267e-06
0.742976 -3.66576e-05 -4.98464e-05
0.756745 -0.00406829 -0.00239701
0 0 0
0 0 0
0.705762 -0.144645 -0.00199036
0.699837 -0.0215819 0.000658481
0.741897 -0.00405465 0.000200285
0.751728 -0.00084049 5.33679e-05
0.753812 -0.000182002 1.23925e-05
0.75431 -5.06791e-05 -2.70956e-06
0.755148 -0.000128686 -6.00479e-05
0.765419 -0.00387631 -0.00250096
0 0 0
0 0 0
-0.0655839 -0.207443 -0.000408138
0.674251 -0.0312544 -0.000100887
0.743082 -0.00592972 0.000159061
0.753578 -0.00122945 4.99308e-05
0.755591 -0.000266414 1.1781e-05
0.756062 -7.24496e-05 -3.14788e-06
0.756734 -0.000190099 -6.96044e-05
0.766679 -0.0032545 -0.00253352
0.363488 -0.0150911 -0.0321657
0.710214 0.00870715 -0.0244671
0.70675 -0.239816 0.0114347
0.703322 -0.0413153 0.00121546
0.745472 -0.00771042 0.000213383
0.754043 -0.0015905 4.77782e-05
0.755821 -0.000344525 1.06416e-05
0.756242 -9.1363e-05 -3.72553e-06
0.756768 -0.000215527 -7.4359e-05
0.766942 -0.00262922 -0.00254614
0.450721 -0.0402934 -0.0408652
0.883746 0.0186546 -0.0279979
0.864896 -0.23551 0.0169341
0.73066 -0.0478492 0.00240353
0.748028 -0.00917145 0.000253799
0.754414 -0.0019042 4.32132e-05
0.755905 -0.000413076 9.04949e-06
0.756263 -0.000106526 -4.39081e-06
0.756669 -0.000213688 -7.72173e-05
0.767082 -0.00206369 -0.00255439
0.499724 -0.054613 -0.0464402
0.91471 0.0185802 -0.0255109
0.900028 -0.220356 0.0131212
0.745599 -0.0514507 0.00216828
0.750196 -0.010287 0.000215399
0.754804 -0.00216129 3.41478e-05
0.755986 -0.000469984 7.05148e-06
0.756273 -0.000117512 -5.08171e-06
0.756584 -0.000191549 -7.89822e-05
0.767185 -0.00155195 -0.00255995
0.539374 -0.0582382 -0.0505938
0.916262 0.015553 -0.0225251
0.903657 -0.200973 0.00766131
0.75568 -0.0528077 0.00147901
0.752301 -0.0110601 0.000153741
0.755229 -0.00235538 2.38134e-05
0.756076 -0.000513657 4.85074e-06
0.756286 -0.000124184 -5.76314e-06
0.756523 -0.000154704 -8.00843e-05
0.767262 -0.00108144 -0.00256359
0.57161 -0.053322 -0.0538533
0.91303 0.0125136 -0.0204428
0.901754 -0.179905 0.00402441
0.764326 -0.0523582 0.000880244
0.754475 -0.0114886 9.11939e-05
0.755686 -0.00248173 1.33521e-05
0.756173 -0.000542925 2.55599e-06
0.756303 -0.000126612 -6.4132e-06
0.756486 -0.000107756 -8.07599e-05
0.767312 -0.000639732 -0.0025658
0.596569 -0.041804 -0.0565335
0.90953 0.010586 -0.0192274
0.899132 -0.158859 0.00174508
0.7719 -0.0504909 0.000457391
0.75664 -0.0115777 3.67993e-05