# vtk DataFile Version 2.0
TestTestTest
ASCII

DATASET STRUCTURED_GRID
DIMENSIONS 11 21 11
POINTS 2541 float
0 0 0
0.5 0 0
1 0 0
1.5 0 0
2 0 0
2.5 0 0
3 0 0
3.5 0 0
4 0 0
4.5 0 0
5 0 0
0 0.05 0
0.5 0.05 0
1 0.05 0
1.5 0.05 0
2 0.05 0
2.5 0.05 0
3 0.05 0
3.5 0.05 0
4 0.05 0
4.5 0.05 0
5 0.05 0
0 0.1 0
0.5 0.1 0
1 0.1 0
1.5 0.1 0
2 0.1 0
2.5 0.1 0
3 0.1 0
3.5 0.1 0
4 0.1 0
4.5 0.1 0
5 0.1 0
0 0.15 0
0.5 0.15 0
1 0.15 0
1.5 0.15 0
2 0.15 0
2.5 0.15 0
3 0.15 0
3.5 0.15 0
4 0.15 0
4.5 0.15 0
5 0.15 0
0 0.2 0
0.5 0.2 0
1 0.2 0
1.5 0.2 0
2 0.2 0
2.5 0.2 0
3 0.2 0
3.5 0.2 0
4 0.2 0
4.5 0.2 0
5 0.2 0
0 0.25 0
0.5 0.25 0
1 0.25 0
1.5 0.25 0
2 0.25 0
2.5 0.25 0
3 0.25 0
3.5 0.25 0
4 0.25 0
4.5 0.25 0
5 0.25 0
0 0.3 0
0.5 0.3 0
1 0.3 0
1.5 0.3 0
2 0.3 0
2.5 0.3 0
3 0.3 0
3.5 0.3 0
4 0.3 0
4.5 0.3 0
5 0.3 0
0 0.35 0
0.5 0.35 0
1 0.35 0
1.5 0.35 0
2 0.35 0
2.5 0.35 0
3 0.35 0
3.5 0.35 0
4 0.35 0
4.5 0.35 0
5 0.35 0
0 0.4 0
0.5 0.4 0
1 0.4 0
1.5 0.4 0
2 0.4 0
2.5 0.4 0
3 0.4 0
3.5 0.4 0
4 0.4 0
4.5 0.4 0
5 0.4 0
0 0.45 0
0.5 0.45 0
1 0.45 0
1.5 0.45 0
2 0.45 0
2.5 0.45 0
3 0.45 0
3.5 0.45 0
4 0.45 0
4.5 0.45 0
5 0.45 0
0 0.5 0
0.5 0.5 0
1 0.5 0
1.5 0.5 0
2 0.5 0
2.5 0.5 0
3 0.5 0
3.5 0.5 0
4 0.5 0
4.5 0.5 0
5 0.5 0
0 0.55 0
0.5 0.55 0
1 0.55 0
1.5 0.55 0
2 0.55 0
2.5 0.55 0
3 0.55 0
3.5 0.55 0
4 0.55 0
4.5 0.55 0
5 0.55 0
0 0.6 0
0.5 0.6 0
1 0.6 0
1.5 0.6 0
2 0.6 0
2.5 0.6 0
3 0.6 0
3.5 0.6 0
4 0.6 0
4.5 0.6 0
5 0.6 0
0 0.65 0
0.5 0.65 0
1 0.65 0
1.5 0.65 0
2 0.65 0
2.5 0.65 0
3 0.65 0
3.5 0.65 0
4 0.65 0
4.5 0.65 0
5 0.65 0
0 0.7 0
0.5 0.7 0
1 0.7 0
1.5 0.7 0
2 0.7 0
2.5 0.7 0
3 0.7 0
3.5 0.7 0
4 0.7 0
4.5 0.7 0
5 0.7 0
0 0.75 0
0.5 0.75 0
1 0.75 0
1.5 0.75 0
2 0.75 0
2.5 0.75 0
3 0.75 0
3.5 0.75 0
4 0.75 0
4.5 0.75 0
5 0.75 0
0 0.8 0
0.5 0.8 0
1 0.8 0
1.5 0.8 0
2 0.8 0
2.5 0.8 0
3 0.8 0
3.5 0.8 0
4 0.8 0
4.5 0.8 0
5 0.8 0
0 0.85 0
0.5 0.85 0
1 0.85 0
1.5 0.85 0
2 0.85 0
2.5 0.85 0
3 0.85 0
3.5 0.85 0
4 0.85 0
4.5 0.85 0
5 0.85 0
0 0.9 0
0.5 0.9 0
1 0.9 0
1.5 0.9 0
2 0.9 0
2.5 0.9 0
3 0.9 0
3.5 0.9 0
4 0.9 0
4.5 0.9 0
5 0.9 0
0 0.95 0
0.5 0.95 0
1 0.95 0
1.5 0.95 0
2 0.95 0
2.5 0.95 0
3 0.95 0
3.5 0.95 0
4 0.95 0
4.5 0.95 0
5 0.95 0
0 1 0
0.5 1 0
1 1 0
1.5 1 0
2 1 0
2.5 1 0
3 1 0
3.5 1 0
4 1 0
4.5 1 0
5 1 0
0 0 0.1
0.5 0 0.1
1 0 0.1
1.5 0 0.1
2 0 0.1
2.5 0 0.1
3 0 0.1
3.5 0 0.1
4 0 0.1
4.5 0 0.1
5 0 0.1
0 0.05 0.1
0.5 0.05 0.1
1 0.05 0.1
1.5 0.05 0.1
2 0.05 0.1
2.5 0.05 0.1
3 0.05 0.1
3.5 0.05 0.1
4 0.05 0.1
4.5 0.05 0.1
5 0.05 0.1
0 0.1 0.1
0.5 0.1 0.1
1 0.1 0.1
1.5 0.1 0.1
2 0.1 0.1
2.5 0.1 0.1
3 0.1 0.1
3.5 0.1 0.1
4 0.1 0.1
4.5 0.1 0.1
5 0.1 0.1
0 0.15 0.1
0.5 0.15 0.1
1 0.15 0.1
1.5 0.15 0.1
2 0.15 0.1
2.5 0.15 0.1
3 0.15 0.1
3.5 0.15 0.1
4 0.15 0.1
4.5 0.15 0.1
5 0.15 0.1
0 0.2 0.1
0.5 0.2 0.1
1 0.2 0.1
1.5 0.2 0.1
2 0.2 0.1
2.5 0.2 0.1
3 0.2 0.1
3.5 0.2 0.1
4 0.2 0.1
4.5 0.2 0.1
5 0.2 0.1
0 0.25 0.1
0.5 0.25 0.1
1 0.25 0.1
1.5 0.25 0.1
2 0.25 0.1
2.5 0.25 0.1
3 0.25 0.1
3.5 0.25 0.1
4 0.25 0.1
4.5 0.25 0.1
5 0.25 0.1
0 0.3 0.1
0.5 0.3 0.1
1 0.3 0.1
1.5 0.3 0.1
2 0.3 0.1
2.5 0.3 0.1
3 0.3 0.1
3.5 0.3 0.1
4 0.3 0.1
4.5 0.3 0.1
5 0.3 0.1
0 0.35 0.1
0.5 0.35 0.1
1 0.35 0.1
1.5 0.35 0.1
2 0.35 0.1
2.5 0.35 0.1
3 0.35 0.1
3.5 0.35 0.1
4 0.35 0.1
4.5 0.35 0.1
5 0.35 0.1
0 0.4 0.1
0.5 0.4 0.1
1 0.4 0.1
1.5 0.4 0.1
2 0.4 0.1
2.5 0.4 0.1
3 0.4 0.1
3.5 0.4 0.1
4 0.4 0.1
4.5 0.4 0.1
5 0.4 0.1
0 0.45 0.1
0.5 0.45 0.1
1 0.45 0.1
1.5 0.45 0.1
2 0.45 0.1
2.5 0.45 0.1
3 0.45 0.1
3.5 0.45 0.1
4 0.45 0.1
4.5 0.45 0.1
5 0.45 0.1
0 0.5 0.1
0.5 0.5 0.1
1 0.5 0.1
1.5 0.5 0.1
2 0.5 0.1
2.5 0.5 0.1
3 0.5 0.1
3.5 0.5 0.1
4 0.5 0.1
4.5 0.5 0.1
5 0.5 0.1
0 0.55 0.1
0.5 0.55 0.1
1 0.55 0.1
1.5 0.55 0.1
2 0.55 0.1
2.5 0.55 0.1
3 0.55 0.1
3.5 0.55 0.1
4 0.55 0.1
4.5 0.55 0.1
5 0.55 0.1
0 0.6 0.1
0.5 0.6 0.1
1 0.6 0.1
1.5 0.6 0.1
2 0.6 0.1
2.5 0.6 0.1
3 0.6 0.1
3.5 0.6 0.1
4 0.6 0.1
4.5 0.6 0.1
5 0.6 0.1
0 0.65 0.1
0.5 0.65 0.1
1 0.65 0.1
1.5 0.65 0.1
2 0.65 0.1
2.5 0.65 0.1
3 0.65 0.1
3.5 0.65 0.1
4 0.65 0.1
4.5 0.65 0.1
5 0.65 0.1
0 0.7 0.1
0.5 0.7 0.1
1 0.7 0.1
1.5 0.7 0.1
2 0.7 0.1
2.5 0.7 0.1
3 0.7 0.1
3.5 0.7 0.1
4 0.7 0.1
4.5 0.7 0.1
5 0.7 0.1
0 0.75 0.1
0.5 0.75 0.1
1 0.75 0.1
1.5 0.75 0.1
2 0.75 0.1
2.5 0.75 0.1
3 0.75 0.1
3.5 0.75 0.1
4 0.75 0.1
4.5 0.75 0.1
5 0.75 0.1
0 0.8 0.1
0.5 0.8 0.1
1 0.8 0.1
1.5 0.8 0.1
2 0.8 0.1
2.5 0.8 0.1
3 0.8 0.1
3.5 0.8 0.1
4 0.8 0.1
4.5 0.8 0.1
5 0.8 0.1
0 0.85 0.1
0.5 0.85 0.1
1 0.85 0.1
1.5 0.85 0.1
2 0.85 0.1
2.5 0.85 0.1
3 0.85 0.1
3.5 0.85 0.1
4 0.85 0.1
4.5 0.85 0.1
5 0.85 0.1
0 0.9 0.1
0.5 0.9 0.1
1 0.9 0.1
1.5 0.9 0.1
2 0.9 0.1
2.5 0.9 0.1
3 0.9 0.1
3.5 0.9 0.1
4 0.9 0.1
4.5 0.9 0.1
5 0.9 0.1
0 0.95 0.1
0.5 0.95 0.1
1 0.95 0.1
1.5 0.95 0.1
2 0.95 0.1
2.5 0.95 0.1
3 0.95 0.1
3.5 0.95 0.1
4 0.95 0.1
4.5 0.95 0.1
5 0.95 0.1
0 1 0.1
0.5 1 0.1
1 1 0.1
1.5 1 0.1
2 1 0.1
2.5 1 0.1
3 1 0.1
3.5 1 0.1
4 1 0.1
4.5 1 0.1
5 1 0.1
0 0 0.2
0.5 0 0.2
1 0 0.2
1.5 0 0.2
2 0 0.2
2.5 0 0.2
3 0 0.2
3.5 0 0.2
4 0 0.2
4.5 0 0.2
5 0 0.2
0 0.05 0.2
0.5 0.05 0.2
1 0.05 0.2
1.5 0.05 0.2
2 0.05 0.2
2.5 0.05 0.2
3 0.05 0.2
3.5 0.05 0.2
4 0.05 0.2
4.5 0.05 0.2
5 0.05 0.2
0 0.1 0.2
0.5 0.1 0.2
1 0.1 0.2
1.5 0.1 0.2
2 0.1 0.2
2.5 0.1 0.2
3 0.1 0.2
3.5 0.1 0.2
4 0.1 0.2
4.5 0.1 0.2
5 0.1 0.2
0 0.15 0.2
0.5 0.15 0.2
1 0.15 0.2
1.5 0.15 0.2
2 0.15 0.2
2.5 0.15 0.2
3 0.15 0.2
3.5 0.15 0.2
4 0.15 0.2
4.5 0.15 0.2
5 0.15 0.2
0 0.2 0.2
0.5 0.2 0.2
1 0.2 0.2
1.5 0.2 0.2
2 0.2 0.2
2.5 0.2 0.2
3 0.2 0.2
3.5 0.2 0.2
4 0.2 0.2
4.5 0.2 0.2
5 0.2 0.2
0 0.25 0.2
0.5 0.25 0.2
1 0.25 0.2
1.5 0.25 0.2
2 0.25 0.2
2.5 0.25 0.2
3 0.25 0.2
3.5 0.25 0.2
4 0.25 0.2
4.5 0.25 0.2
5 0.25 0.2
0 0.3 0.2
0.5 0.3 0.2
1 0.3 0.2
1.5 0.3 0.2
2 0.3 0.2
2.5 0.3 0.2
3 0.3 0.2
3.5 0.3 0.2
4 0.3 0.2
4.5 0.3 0.2
5 0.3 0.2
0 0.35 0.2
0.5 0.35 0.2
1 0.35 0.2
1.5 0.35 0.2
2 0.35 0.2
2.5 0.35 0.2
3 0.35 0.2
3.5 0.35 0.2
4 0.35 0.2
4.5 0.35 0.2
5 0.35 0.2
0 0.4 0.2
0.5 0.4 0.2
1 0.4 0.2
1.5 0.4 0.2
2 0.4 0.2
2.5 0.4 0.2
3 0.4 0.2
3.5 0.4 0.2
4 0.4 0.2
4.5 0.4 0.2
5 0.4 0.2
0 0.45 0.2
0.5 0.45 0.2
1 0.45 0.2
1.5 0.45 0.2
2 0.45 0.2
2.5 0.45 0.2
3 0.45 0.2
3.5 0.45 0.2
4 0.45 0.2
4.5 0.45 0.2
5 0.45 0.2
0 0.5 0.2
0.5 0.5 0.2
1 0.5 0.2
1.5 0.5 0.2
2 0.5 0.2
2.5 0.5 0.2
3 0.5 0.2
3.5 0.5 0.2
4 0.5 0.2
4.5 0.5 0.2
5 0.5 0.2
0 0.55 0.2
0.5 0.55 0.2
1 0.55 0.2
1.5 0.55 0.2
2 0.55 0.2
2.5 0.55 0.2
3 0.55 0.2
3.5 0.55 0.2
4 0.55 0.2
4.5 0.55 0.2
5 0.55 0.2
0 0.6 0.2
0.5 0.6 0.2
1 0.6 0.2
1.5 0.6 0.2
2 0.6 0.2
2.5 0.6 0.2
3 0.6 0.2
3.5 0.6 0.2
4 0.6 0.2
4.5 0.6 0.2
5 0.6 0.2
0 0.65 0.2
0.5 0.65 0.2
1 0.65 0.2
1.5 0.65 0.2
2 0.65 0.2
2.5 0.65 0.2
3 0.65 0.2
3.5 0.65 0.2
4 0.65 0.2
4.5 0.65 0.2
5 0.65 0.2
0 0.7 0.2
0.5 0.7 0.2
1 0.7 0.2
1.5 0.7 0.2
2 0.7 0.2
2.5 0.7 0.2
3 0.7 0.2
3.5 0.7 0.2
4 0.7 0.2
4.5 0.7 0.2
5 0.7 0.2
0 0.75 0.2
0.5 0.75 0.2
1 0.75 0.2
1.5 0.75 0.2
2 0.75 0.2
2.5 0.75 0.2
3 0.75 0.2
3.5 0.75 0.2
4 0.75 0.2
4.5 0.75 0.2
5 0.75 0.2
0 0.8 0.2
0.5 0.8 0.2
1 0.8 0.2
1.5 0.8 0.2
2 0.8 0.2
2.5 0.8 0.2
3 0.8 0.2
3.5 0.8 0.2
4 0.8 0.2
4.5 0.8 0.2
5 0.8 0.2
0 0.85 0.2
0.5 0.85 0.2
1 0.85 0.2
1.5 0.85 0.2
2 0.85 0.2
2.5 0.85 0.2
3 0.85 0.2
3.5 0.85 0.2
4 0.85 0.2
4.5 0.85 0.2
5 0.85 0.2
0 0.9 0.2
0.5 0.9 0.2
1 0.9 0.2
1.5 0.9 0.2
2 0.9 0.2
2.5 0.9 0.2
3 0.9 0.2
3.5 0.9 0.2
4 0.9 0.2
4.5 0.9 0.2
5 0.9 0.2
0 0.95 0.2
0.5 0.95 0.2
1 0.95 0.2
1.5 0.95 0.2
2 0.95 0.2
2.5 0.95 0.2
3 0.95 0.2
3.5 0.95 0.2
4 0.95 0.2
4.5 0.95 0.2
5 0.95 0.2
0 1 0.2
0.5 1 0.2
1 1 0.2
1.5 1 0.2
2 1 0.2
2.5 1 0.2
3 1 0.2
3.5 1 0.2
4 1 0.2
4.5 1 0.2
5 1 0.2
0 0 0.3
0.5 0 0.3
1 0 0.3
1.5 0 0.3
2 0 0.3
2.5 0 0.3
3 0 0.3
3.5 0 0.3
4 0 0.3
4.5 0 0.3
5 0 0.3
0 0.05 0.3
0.5 0.05 0.3
1 0.05 0.3
1.5 0.05 0.3
2 0.05 0.3
2.5 0.05 0.3
3 0.05 0.3
3.5 0.05 0.3
4 0.05 0.3
4.5 0.05 0.3
5 0.05 0.3
0 0.1 0.3
0.5 0.1 0.3
1 0.1 0.3
1.5 0.1 0.3
2 0.1 0.3
2.5 0.1 0.3
3 0.1 0.3
3.5 0.1 0.3
4 0.1 0.3
4.5 0.1 0.3
5 0.1 0.3
0 0.15 0.3
0.5 0.15 0.3
1 0.15 0.3
1.5 0.15 0.3
2 0.15 0.3
2.5 0.15 0.3
3 0.15 0.3
3.5 0.15 0.3
4 0.15 0.3
4.5 0.15 0.3
5 0.15 0.3
0 0.2 0.3
0.5 0.2 0.3
1 0.2 0.3
1.5 0.2 0.3
2 0.2 0.3
2.5 0.2 0.3
3 0.2 0.3
3.5 0.2 0.3
4 0.2 0.3
4.5 0.2 0.3
5 0.2 0.3
0 0.25 0.3
0.5 0.25 0.3
1 0.25 0.3
1.5 0.25 0.3
2 0.25 0.3
2.5 0.25 0.3
3 0.25 0.3
3.5 0.25 0.3
4 0.25 0.3
4.5 0.25 0.3
5 0.25 0.3
0 0.3 0.3
0.5 0.3 0.3
1 0.3 0.3
1.5 0.3 0.3
2 0.3 0.3
2.5 0.3 0.3
3 0.3 0.3
3.5 0.3 0.3
4 0.3 0.3
4.5 0.3 0.3
5 0.3 0.3
0 0.35 0.3
0.5 0.35 0.3
1 0.35 0.3
1.5 0.35 0.3
2 0.35 0.3
2.5 0.35 0.3
3 0.35 0.3
3.5 0.35 0.3
4 0.35 0.3
4.5 0.35 0.3
5 0.35 0.3
0 0.4 0.3
0.5 0.4 0.3
1 0.4 0.3
1.5 0.4 0.3
2 0.4 0.3
2.5 0.4 0.3
3 0.4 0.3
3.5 0.4 0.3
4 0.4 0.3
4.5 0.4 0.3
5 0.4 0.3
0 0.45 0.3
0.5 0.45 0.3
1 0.45 0.3
1.5 0.45 0.3
2 0.45 0.3
2.5 0.45 0.3
3 0.45 0.3
3.5 0.45 0.3
4 0.45 0.3
4.5 0.45 0.3
5 0.45 0.3
0 0.5 0.3
0.5 0.5 0.3
1 0.5 0.3
1.5 0.5 0.3
2 0.5 0.3
2.5 0.5 0.3
3 0.5 0.3
3.5 0.5 0.3
4 0.5 0.3
4.5 0.5 0.3
5 0.5 0.3
0 0.55 0.3
0.5 0.55 0.3
1 0.55 0.3
1.5 0.55 0.3
2 0.55 0.3
2.5 0.55 0.3
3 0.55 0.3
3.5 0.55 0.3
4 0.55 0.3
4.5 0.55 0.3
5 0.55 0.3
0 0.6 0.3
0.5 0.6 0.3
1 0.6 0.3
1.5 0.6 0.3
2 0.6 0.3
2.5 0.6 0.3
3 0.6 0.3
3.5 0.6 0.3
4 0.6 0.3
4.5 0.6 0.3
5 0.6 0.3
0 0.65 0.3
0.5 0.65 0.3
1 0.65 0.3
1.5 0.65 0.3
2 0.65 0.3
2.5 0.65 0.3
3 0.65 0.3
3.5 0.65 0.3
4 0.65 0.3
4.5 0.65 0.3
5 0.65 0.3
0 0.7 0.3
0.5 0.7 0.3
1 0.7 0.3
1.5 0.7 0.3
2 0.7 0.3
2.5 0.7 0.3
3 0.7 0.3
3.5 0.7 0.3
4 0.7 0.3
4.5 0.7 0.3
5 0.7 0.3
0 0.75 0.3
0.5 0.75 0.3
1 0.75 0.3
1.5 0.75 0.3
2 0.75 0.3
2.5 0.75 0.3
3 0.75 0.3
3.5 0.75 0.3
4 0.75 0.3
4.5 0.75 0.3
5 0.75 0.3
0 0.8 0.3
0.5 0.8 0.3
1 0.8 0.3
1.5 0.8 0.3
2 0.8 0.3
2.5 0.8 0.3
3 0.8 0.3
3.5 0.8 0.3
4 0.8 0.3
4.5 0.8 0.3
5 0.8 0.3
0 0.85 0.3
0.5 0.85 0.3
1 0.85 0.3
1.5 0.85 0.3
2 0.85 0.3
2.5 0.85 0.3
3 0.85 0.3
3.5 0.85 0.3
4 0.85 0.3
4.5 0.85 0.3
5 0.85 0.3
0 0.9 0.3
0.5 0.9 0.3
1 0.9 0.3
1.5 0.9 0.3
2 0.9 0.3
2.5 0.9 0.3
3 0.9 0.3
3.5 0.9 0.3
4 0.9 0.3
4.5 0.9 0.3
5 0.9 0.3
0 0.95 0.3
0.5 0.95 0.3
1 0.95 0.3
1.5 0.95 0.3
2 0.95 0.3
2.5 0.95 0.3
3 0.95 0.3
3.5 0.95 0.3
4 0.95 0.3
4.5 0.95 0.3
5 0.95 0.3
0 1 0.3
0.5 1 0.3
1 1 0.3
1.5 1 0.3
2 1 0.3
2.5 1 0.3
3 1 0.3
3.5 1 0.3
4 1 0.3
4.5 1 0.3
5 1 0.3
0 0 0.4
[...]
CELL_DATA 2000
SCALARS pressure float 1
LOOKUP_TABLE default
0
0
0.88711
0.963153
0.788162
0.633052
0.483153
0.334621
0.185717
0.0238924
0
0
0.884372
0.955962
0.787532
0.632921
0.483123
0.334616
0.185722
0.0260871
0
0
0.85037
0.951724
0.78658
0.632722
0.483075
0.334609
0.185791
0.0282489
0
0
0.836946
0.942192
0.785396
0.632468
0.483015
0.334602
0.185898
0.0300801
1.38686
1.51896
0.841336
0.933168
0.784004
0.632171
0.482942
0.334593
0.186019
0.0315652
1.38425
1.51624
0.861716
0.925368
0.782517
0.631841
0.48286
0.334582
0.186136
0.0327437
1.37777
1.5105
0.887196
0.919415
0.781033
0.631489
0.482771
0.334568
0.18624
0.0336485
1.36814
1.50225
0.917428
0.915276
0.77962
0.631126
0.482676
0.334551
0.186323
0.0343053
1.35796
1.49268
0.946937
0.912675
0.778327
0.630759
0.482577
0.33453
0.186378
0.0347326
1.34905
1.48295
0.973845
0.911214
0.777168
0.630398
0.482476
0.334506
0.186403
0.0349426
1.34204
1.47371
0.997729
0.910571
0.776141
0.630047
0.482375
0.334478
0.186395
0.0349413
1.3373
1.46533
1.01848
0.910482
0.775237
0.629712
0.482276
0.334448
0.186357
0.0347287
1.33526
1.45803
1.03615
0.910729
0.774442
0.629395
0.482181
0.334416
0.186288
0.0342989
1.33596
1.45187
1.05086
0.911132
0.773741
0.629102
0.48209
0.334383
0.186192
0.0336397
1.33929
1.44686
1.06279
0.911548
0.773119
0.628833
0.482006
0.33435
0.186076
0.0327327
1.34506
1.44296
1.0721
0.911863
0.772563
0.62859
0.481931
0.334319
0.185948
0.0315522
1.35279
1.44013
1.07897
0.911989
0.77206
0.628375
0.481864
0.334291
0.185818
0.0300653
1.36078
1.43824
1.08359
0.911871
0.771604
0.628192
0.481808
0.334268
0.185703
0.0282326
1.36636
1.43737
1.08615
0.911519
0.771207
0.628044
0.481765
0.334252
0.185628
0.0260697
1.36863
1.43739
1.08659
0.910983
0.770902
0.627944
0.481737
0.334242
0.18562
0.0238743
0
0
0.896599
0.960676
0.78813
0.633016
0.483144
0.334632
0.185895
0.0279913
0
0
0.891978
0.954166
0.787218
0.632846
0.483106
0.334624
0.185872
0.0313341
0
0
0.859414
0.950048
0.786249
0.632638
0.483057
0.334617
0.185985
0.0337148
0
0
0.865477
0.943137
0.785019
0.632385
0.482997
0.33461
0.186117
0.0355731
1.37241
1.51856
0.815837
0.933218
0.783632
0.632094
0.482926
0.334603
0.18625
0.0370789
1.36922
1.53476
0.82787
0.923154
0.78216
0.631775
0.482847
0.334593
0.186376
0.0382726
1.36359
1.5271
0.863977
0.916766
0.780724
0.631437
0.482761
0.334581
0.186484
0.0391884
1.35621
1.51328
0.900512
0.913272
0.77939
0.631088
0.482669
0.334565
0.18657
0.0398526
1.34789
1.49958
0.935038
0.911285
0.778179
0.630737
0.482573
0.334545
0.186627
0.0402845
1.33982
1.48669
0.965968
0.910301
0.777092
0.63039
0.482476
0.334522
0.186652
0.0404967
1.33349
1.47502
0.992656
0.91003
0.776127
0.630053
0.482378
0.334495
0.186645
0.0404954
1.32918
1.46492
1.01535
0.910224
0.775276
0.629731
0.482283
0.334466
0.186606
0.0402808
1.32697
1.45657
1.03438
0.910683
0.774526
0.629427
0.48219
0.334434
0.186536
0.0398464
1.32691
1.44997
1.05004
0.911246
0.773864
0.629145
0.482103
0.334401
0.186438
0.0391799
1.32928
1.44491
1.0626
0.911781
0.773274
0.628886
0.482022
0.334368
0.186317
0.038262
1.33404
1.44104
1.07228
0.912186
0.772744
0.628651
0.481948
0.334337
0.186181
0.0370663
1.33987
1.43799
1.07932
0.912382
0.772262
0.628443
0.481883
0.334309
0.186038
0.0355589
1.34574
1.43571
1.08391
0.912314
0.771823
0.628263
0.481828
0.334285
0.185899
0.0336991
1.35078
1.43466
1.08633
0.911925
0.771411
0.62811
0.481783
0.334268
0.18578
0.0313173
1.35443
1.43587
1.08657
0.911188
0.771023
0.627985
0.481749
0.334259
0.185799
0.0279735
0
0
0.907504
0.961206
0.788236
0.632988
0.483134
0.334653
0.186186
0.0311755
0
0
0.902211
0.95553
0.787292
0.632809
0.483094
0.334645
0.186175
0.0347272
0
0
0.874854
0.952414
0.786345
0.632596
0.483044
0.33464
0.186306
0.0372286
0
0
0.882776
0.946998
0.785178
0.632347
0.482985
0.334635
0.186453
0.039158
1.35744
1.51094
0.808893
0.937429
0.783836
0.632062
0.482916
0.334629
0.186599
0.0407079
1.354
1.54633
0.793331
0.925516
0.782343
0.631748
0.482838
0.33462
0.186733
0.0419308
1.35113
1.55192
0.826106
0.916195
0.780806
0.631414
0.482754
0.334609
0.186848
0.0428658
1.35151
1.53716
0.874892
0.911039
0.779365
0.631071
0.482665
0.334595
0.186937
0.0435423
1.35373
1.51542
0.918008
0.908988
0.778101
0.630725
0.482572
0.334576
0.186996
0.0439816
1.35593
1.49447
0.954237
0.908456
0.777013
0.630386
0.482477
0.334554
0.187023
0.0441973
1.35695
1.47675
0.984926
0.90866
0.776071
0.630058
0.482382
0.334528
0.187016
0.0441961
1.35609
1.4628
1.01064
0.909261
0.775251
0.629745
0.482289
0.334499
0.186976
0.043978
1.35372
1.45248
1.03191
0.910053
0.774535
0.62945
0.4822
0.334467
0.186904
0.0435364
1.34983
1.44546
1.04921
0.910884
0.773905
0.629176
0.482114
0.334434
0.186802
0.0428576
1.3444
1.44122
1.06293
0.911634
0.773345
0.628924
0.482035
0.334401
0.186676
0.0419206
1.33847
1.43891
1.07325
0.912212
0.772842
0.628696
0.481963
0.334369
0.186531
0.0406958
1.3337
1.43723
1.08037
0.912542
0.772387
0.628493
0.481899
0.33434
0.186376
0.0391442
1.33229
1.43553
1.08474
0.912549
0.771964
0.628316
0.481845
0.334315
0.186222
0.0372134
1.33513
1.43461
1.08695
0.91217
0.77155
0.628161
0.481799
0.334296
0.186084
0.0347108
1.33939
1.43611
1.08713
0.911397
0.771143
0.62803
0.481763
0.334286
0.186091
0.0311581
0
0
0.913153
0.962611
0.788396
0.632976
0.483128
0.334675
0.186441
0.0331889
0
0
0.908126
0.957228
0.787458
0.632796
0.483089
0.334668
0.186434
0.0367845
0
0
0.880939
0.9547
0.786541
0.632585
0.483039
0.334663
0.186573
0.0393286
0
0
0.885425
0.94997
0.785426
0.63234
0.48298
0.334659
0.186727
0.0412924
1.3498
1.5178
0.807503
0.940698
0.784137
0.632061
0.482912
0.334654
0.18688
0.0428685
1.34719
1.55755
0.779487
0.928385
0.782669
0.631752
0.482836
0.334647
0.187019
0.0441109
1.3477
1.56904
0.796676
0.917511
0.781083
0.631421
0.482753
0.334637
0.187138
0.0450599
1.35594
1.55631
0.843841
0.91048
0.779524
0.631076
0.482664
0.334623
0.18723
0.0457461
1.37085
1.52996
0.896969
0.907419
0.778135
0.630729
0.482573
0.334605
0.187291
0.0461914
1.38738
1.50125
0.94159
0.906709
0.776963
0.630388
0.48248
0.334583
0.187319
0.04641
1.39982
1.47546
0.977197
0.907056
0.77598
0.63006
0.482386
0.334558
0.187313
0.0464088
1.40493
1.4553
1.00629
0.907893
0.775147
0.629749
0.482295
0.334529
0.187271
0.0461879
1.40251
1.44218
1.03019
0.908951
0.774434
0.629456
0.482206
0.334498
0.187197
0.0457403
1.39241
1.43573
1.04927
0.910072
0.773822
0.629186
0.482122
0.334465
0.187093
0.0450519
1.37508
1.434
1.06375
0.911123
0.773299
0.62894
0.482044
0.334431
0.186963
0.0441009
1.35435
1.43444
1.07415
0.911962
0.77284
0.628718
0.481973
0.334399
0.186813
0.0428566
1.33687
1.43524
1.08119
0.91247
0.77242
0.62852
0.48191
0.334369
0.186652
0.0412788
1.32792
1.43535
1.08545
0.912574
0.772017
0.628345
0.481856
0.334343
0.18649
0.0393137
1.32776
1.43518
1.08756
0.912238
0.771611
0.628191
0.48181
0.334323
0.186345
0.0367683
1.33137
1.43699
1.08772
0.911479
0.771206
0.628059
0.481774
0.334312
0.186348
0.0331718
0
0
0.914705
0.963507
0.788506
0.632974
0.483126
0.334689
0.186585
0.0341543
0
0
0.909411
0.958232
0.787575
0.632794
0.483086
0.334682
0.18658
0.0377606
0
0
0.881353
0.955938
0.786673
0.632584
0.483037
0.334678
0.18672
0.040319
0
0
0.884454
0.951478
0.785583
0.632341
0.482978
0.334674
0.186878
0.0422963
1.34713
1.52409
0.805172
0.942349
0.784319
0.632064
0.482911
0.33467
0.187033
0.0438838
1.3452
1.56509
0.774978
0.929959
0.782872
0.631759
0.482835
0.334663
0.187175
0.0451352
1.34838
1.57777
0.78747
0.918794
0.781289
0.631431
0.482753
0.334653
0.187296
0.0460911
1.36222
1.56531
0.828219
0.911118
0.7797
0.631088
0.482665
0.33464
0.187389
0.0467822
1.38486
1.53727
0.880089
0.907111
0.778234
0.630739
0.482574
0.334622
0.187452
0.0472306
1.41004
1.50465
0.929973
0.905716
0.776965
0.630393
0.482481
0.334601
0.18748
0.0474508
1.43044
1.4743
0.971893
0.905842
0.775903
0.630059
0.482388
0.334575
0.187473
0.0474496
1.43989
1.45008
1.00496
0.906763
0.775027
0.629744
0.482297
0.334547
0.187432
0.0472271
1.43732
1.43495
1.03041
0.908065
0.774315
0.629452
0.482209
0.334515
0.187357
0.0467764
1.42259
1.42885
1.04975
0.909468
0.773736
0.629186
0.482126
0.334482
0.187251
0.0460832
1.39708
1.42869
1.06418
0.910754
0.773249
0.628944
0.482049
0.334449
0.187119
0.0451253
1.36761
1.43124
1.07459
0.911759
0.77282
0.628726
0.481978
0.334416
0.186967
0.043872
1.34246
1.43386
1.08162
0.912375
0.77242
0.628531
0.481916
0.334386
0.186803
0.0422829
1.32806
1.4352
1.08585
0.912542
0.77203
0.628358
0.481862
0.33436
0.186638
0.0403042
1.32541
1.43562
1.08791
0.912239
0.771632
0.628204
0.481816
0.334339
0.186491
0.0377446
1.32846
1.43766
1.08808
0.911494
0.771229
0.628072
0.48178
0.334328
0.186492
0.0341373
0
0
0.914705
0.963507
0.788506
0.632974
0.483126
0.334689
0.186585
0.0341543
0
0
0.909411
0.958232
0.787575
0.632794
0.483086
0.334682
0.18658
0.0377606
0
0
0.881353
0.955938
0.786673
0.632584
0.483037
0.334678
0.18672
0.040319
0
0
0.884454
0.951478
0.785583
0.632341
0.482978
0.334674
0.186878
0.0422963
1.34713
1.52409
0.805172
0.942349
0.784319
0.632064
0.482911
0.33467
0.187033
0.0438838
1.3452
1.56509
0.774978
0.929959
0.782872
0.631759
0.482835
0.334663
0.187175
0.0451352
1.34838
1.57777
0.78747
0.918794
0.781289
0.631431
0.482753
0.334653
0.187296
0.0460911
1.36222
1.56531
0.828219
0.911118
0.7797
0.631088
0.482665
0.33464
0.187389
0.0467822
1.38486
1.53727
0.880089
0.907111
0.778234
0.630739
0.482574
0.334622
0.187452
0.0472306
1.41004
1.50465
0.929973
0.905716
0.776965
0.630393
0.482481
0.334601
0.18748
0.0474508
1.43044
1.4743
0.971893
0.905842
0.775903
0.630059
0.482388
0.334575
0.187473
0.0474496
1.43989
1.45008
1.00496
0.906763
0.775027
0.629744
0.482297
0.334547
0.187432
0.0472271
1.43732
1.43495
1.03041
0.908065
0.774315
0.629452
0.482209
0.334515
0.187357
0.0467764
1.42259
1.42885
1.04975
0.909468
0.773736
0.629186
0.482126
0.334482
0.187251
0.0460832
1.39708
1.42869
1.06418
0.910754
0.773249
0.628944
0.482049
0.334449
0.187119
0.0451253
1.36761
1.43124
1.07459
0.911759
0.77282
0.628726
0.481978
0.334416
0.186967
0.043872
1.34246
1.43386
1.08162
0.912375
0.77242
0.628531
0.481916
0.334386
0.186803
0.0422829
1.32806
1.4352
1.08585
0.912542
0.77203
0.628358
0.481862
0.33436
0.186638
0.0403042
1.32541
1.43562
1.08791
0.912239
0.771632
0.628204
0.481816
0.334339
0.186491
0.0377446
1.32846
1.43766
1.08808
0.911494
0.771229
0.628072
0.48178
0.334328
0.186492
0.0341373
0
0
0.913153
0.962611
0.788396
0.632976
0.483128
0.334675
0.186441
0.0331889
0
0
0.908126
0.957228
0.787458
0.632796
0.483089
0.334668
0.186434
0.0367845
0
0
0.880939
0.9547
0.786541
0.632585
0.483039
0.334663
0.186573
0.0393286
0
0
0.885425
0.94997
0.785426
0.63234
0.48298
0.334659
0.186727
0.0412924
1.3498
1.5178
0.807503
0.940698
0.784137
0.632061
0.482912
0.334654
0.18688
0.0428685
1.34719
1.55755
0.779487
0.928385
0.782669
0.631752
0.482836
0.334647
0.187019
0.0441109
1.3477
1.56904
0.796676
0.917511
0.781083
0.631421
0.482753
0.334637
0.187138
0.0450599
1.35594
1.55631
0.843841
0.91048
0.779524
0.631076
0.482664
0.334623
0.18723
0.0457461
1.37085
1.52996
0.896969
0.907419
0.778135
0.630729
0.482573
0.334605
0.187291
0.0461914
1.38738
1.50125
0.94159
0.906709
0.776963
0.630388
0.48248
0.334583
0.187319
0.04641
1.39982
1.47546
0.977197
0.907056
0.77598
0.63006
0.482386
0.334558
0.187313
0.0464088
1.40493
1.4553
1.00629
0.907893
0.775147
0.629749
0.482295
0.334529
0.187271
0.0461879
1.40251
1.44218
1.03019
0.908951
0.774434
0.629456
0.482206
0.334498
0.187197
0.0457403
1.39241
1.43573
1.04927
0.910072
0.773822
0.629186
0.482122
0.334465
0.187093
0.0450519
1.37508
1.434
1.06375
0.911123
0.773299
0.62894
0.482044
0.334431
0.186963
0.0441009
1.35435
1.43444
1.07415
0.911962
0.77284
0.628718
0.481973
0.334399
0.186813
0.0428566
1.33687
1.43524
1.08119
0.91247
0.77242
0.62852
0.48191
0.334369
0.186652
0.0412788
1.32792
1.43535
1.08545
0.912574
0.772017
0.628345
0.481856
0.334343
0.18649
0.0393137
1.32776
1.43518
1.08756
0.912238
0.771611
0.628191
0.48181
0.334323
0.186345
0.0367683
1.33137
1.43699
1.08772
0.911479
0.771206
0.628059
0.481774
0.334312
0.186348
0.0331718
0
0
0.907504
0.961206
0.788236
0.632988
0.483134
0.334653
0.186186
0.0311755
0
0
0.902211
0.95553
0.787292
0.632809
0.483094
0.334645
0.186175
0.0347272
0
0
0.874854
0.952414
0.786345
0.632596
0.483044
0.33464
0.186306
0.0372286
0
0
0.882776
0.946998
0.785178
0.632347
0.482985
0.334635
0.186453
0.039158
1.35744
1.51094
0.808893
0.937429
0.783836
0.632062
0.482916
0.334629
0.186599
0.0407079
1.354
1.54633
0.793331
0.925516
0.782343
0.631748
0.482838
0.33462
0.186733
0.0419308
1.35113
1.55192
0.826106
0.916195
0.780806
0.631414
0.482754
0.334609
0.186848
0.0428658
1.35151
1.53716
0.874892
0.911039
0.779365
0.631071
0.482665
0.334595
0.186937
0.0435423
1.35373
1.51542
0.918008
0.908988
0.778101
0.630725
0.482572
0.334576
0.186996
0.0439816
1.35593
1.49447
0.954237
0.908456
0.777013
0.630386
0.482477
0.334554
0.187023
0.0441973
1.35695
1.47675
0.984926
0.90866
0.776071
0.630058
0.482382
0.334528
0.187016
0.0441961
1.35609
1.4628
1.01064
0.909261
0.775251
0.629745
0.482289
0.334499
0.186976
0.043978
1.35372
1.45248
1.03191
0.910053
0.774535
0.62945
0.4822
0.334467
0.186904
0.0435364
1.34983
1.44546
1.04921
0.910884
0.773905
0.629176
0.482114
0.334434
0.186802
0.0428576
1.3444
1.44122
1.06293
0.911634
0.773345
0.628924
0.482035
0.334401
0.186676
0.0419206
1.33847
1.43891
1.07325
0.912212
0.772842
0.628696
0.481963
0.334369
0.186531
0.0406958
1.3337
1.43723
1.08037
0.912542
0.772387
0.628493
0.481899
0.33434
0.186376
0.0391442
1.33229
1.43553
1.08474
0.912549
0.771964
0.628316
0.481845
0.334315
0.186222
0.0372134
1.33513
1.43461
1.08695
0.91217
0.77155
0.628161
0.481799
0.334296
0.186084
0.0347108
1.33939
1.43611
1.08713
0.911397
0.771143
0.62803
0.481763
0.334286
0.186091
0.0311581
0
0
0.896599
0.960676
0.78813
0.633016
0.483144
0.334632
0.185895
0.0279913
0
0
0.891978
0.954166
0.787218
0.632846
0.483106
0.334624
0.185872
0.0313341
0
0
0.859414
0.950048
0.786249
0.632638
0.483057
0.334617
0.185985
0.0337148
0
0
0.865477
0.943137
0.785019
0.632385
0.482997
0.33461
0.186117
0.0355731
1.37241
1.51856
0.815837
0.933218
0.783632
0.632094
0.482926
0.334603
0.18625
0.0370789
1.36922
1.53476
0.82787
0.923154
0.78216
0.631775
0.482847
0.334593
0.186376
0.0382726
1.36359
1.5271
0.863977
0.916766
0.780724
0.631437
0.482761
0.334581
0.186484
0.0391884
1.35621
1.51328
0.900512
0.913272
0.77939
0.631088
0.482669
0.334565
0.18657
0.0398526
1.34789
1.49958
0.935038
0.911285
0.778179
0.630737
0.482573
0.334545
0.186627
0.0402845
1.33982
1.48669
0.965968
0.910301
0.777092
0.63039
0.482476
0.334522
0.186652
0.0404967
1.33349
1.47502
0.992656
0.91003
0.776127
0.630053
0.482378
0.334495
0.186645
0.0404954
1.32918
1.46492
1.01535
0.910224
0.775276
0.629731
0.482283
0.334466
0.186606
0.0402808
1.32697
1.45657
1.03438
0.910683
0.774526
0.629427
0.48219
0.334434
0.186536
0.0398464
1.32691
1.44997
1.05004
0.911246
0.773864
0.629145
0.482103
0.334401
0.186438
0.0391799
1.32928
1.44491
1.0626
0.911781
0.773274
0.628886
0.482022
0.334368
0.186317
0.038262
1.33404
1.44104
1.07228
0.912186
0.772744
0.628651
0.481948
0.334337
0.186181
0.0370663
1.33987
1.43799
1.07932
0.912382
0.772262
0.628443
0.481883
0.334309
0.186038
0.0355589
1.34574
1.43571
1.08391
0.912314
0.771823
0.628263
0.481828
0.334285
0.185899
0.0336991
1.35078
1.43466
1.08633
0.911925
0.771411
0.62811
0.481783
0.334268
0.18578
0.0313173
1.35443
1.43587
1.08657
0.911188
0.771023
0.627985
0.481749
0.334259
0.185799
0.0279735
0
0
0.88711
0.963153
0.788162
0.633052
0.483153
0.334621
0.185717
0.0238924
0
0
0.884372
0.955962
0.787532
0.632921
0.483123
0.334616
0.185722
0.0260871
0
0
0.85037
0.951724
0.78658
0.632722
0.483075
0.334609
0.185791
0.0282489
0
0
0.836946
0.942192
0.785396
0.632468
0.483015
0.334602
0.185898
0.0300801
1.38686
1.51896
0.841336
0.933168
0.784004
0.632171
0.482942
0.334593
0.186019
0.0315652
1.38425
1.51624
0.861716
0.925368
0.782517
0.631841
0.48286
0.334582
0.186136
0.0327437
1.37777
1.5105
0.887196
0.919415
0.781033
0.631489
0.482771
0.334568
0.18624
0.0336485
1.36814
1.50225
0.917428
0.915276
0.77962
0.631126
0.482676
0.334551
0.186323
0.0343053
1.35796
1.49268
0.946937
0.912675
0.778327
0.630759
0.482577
0.33453
0.186378
0.0347326
1.34905
1.48295
0.973845
0.911214
0.777168
0.630398
0.482476
0.334506
0.186403
0.0349426
1.34204
1.47371
0.997729
0.910571
0.776141
0.630047
0.482375
0.334478
0.186395
0.0349413
1.3373
1.46533
1.01848
0.910482
0.775237
0.629712
0.482276
0.334448
0.186357
0.0347287
1.33526
1.45803
1.03615
0.910729
0.774442
0.629395
0.482181
0.334416
0.186288
0.0342989
1.33596
1.45187
1.05086
0.911132
0.773741
0.629102
0.48209
0.334383
0.186192
0.0336397
1.33929
1.44686
1.06279
0.911548
0.773119
0.628833
0.482006
0.33435
0.186076
0.0327327
1.34506
1.44296
1.0721
0.911863
0.772563
0.62859
0.481931
0.334319
0.185948
0.0315522
1.35279
1.44013
1.07897
0.911989
0.77206
0.628375
0.481864
0.334291
0.185818
0.0300653
1.36078
1.43824
1.08359
0.911871
0.771604
0.628192
0.481808
0.334268
0.185703
0.0282326
1.36636
1.43737
1.08615
0.911519
0.771207
0.628044
0.481765
0.334252
0.185628
0.0260697
1.36863
1.43739
1.08659
0.910983
0.770902
0.627944
0.481737
0.334242
0.18562
0.0238743

VECTORS velocity float
0 0 0
0 0 0
0.72915 -0.0306198 -0.00250602
0.656227 -0.00238269 0.00103366
0.680734 -0.00064837 0.0001271
0.687919 -0.000147333 2.73003e-05
0.689555 -3.29056e-05 6.08104e-06
0.689958 -9.03279e-06 -2.80273e-06
0.690379 -7.37904e-06 -4.86817e-05
0.713847 -0.00160182 -0.00142654
0 0 0
0 0 0
-0.105526 -0.0906947 -0.00201795
0.674392 -0.0116772 0.00082463
0.74849 -0.0022964 0.000178713
0.759376 -0.000492424 3.89701e-05
0.76155 -0.000109165 8.51641e-06
0.762069 -2.97356e-05 -2.3758e-06
0.762847 -5.42533e-05 -5.09483e-05
0.772291 -0.00319411 -0.00177784
0 0 0
0 0 0
0.752561 -0.154062 -0.000658639
0.716902 -0.0221291 0.000690463
0.756942 -0.00418323 0.000155989
0.766797 -0.000885546 3.81413e-05
0.768951 -0.000195982 8.5895e-06
0.76947 -5.2778e-05 -2.56239e-06
0.770164 -0.000121862 -5.7388e-05
0.777437 -0.00293779 -0.00183444
0 0 0
0 0 0
-0.0913677 -0.219849 4.68196e-05
0.693252 -0.0313104 6.24253e-05
0.757706 -0.00596973 0.000127662
0.767722 -0.00126464 3.53311e-05
0.769749 -0.000280064 8.05096e-06
0.770231 -7.42856e-05 -2.90233e-06
0.770793 -0.000163402 -6.24277e-05
0.778033 -0.0024429 -0.00185494
0.394351 -0.0164954 -0.0355316
0.778271 0.00817261 -0.0246684
0.754745 -0.250977 0.0114804
0.721459 -0.0406791 0.00113972
0.759824 -0.00762599 0.000156251
0.768074 -0.001611 3.2759e-05
0.769863 -0.000356958 7.19595e-06
0.770291 -9.29136e-05 -3.29326e-06
0.770741 -0.00017915 -6.50076e-05
0.778185 -0.00197188 -0.00186491
0.475907 -0.0442135 -0.0436794
0.930953 0.0166401 -0.0254744
0.894126 -0.242086 0.0159608
0.744902 -0.0465635 0.00190852
0.762069 -0.00898204 0.000170035
0.768436 -0.00191055 2.86825e-05
0.76994 -0.00042413 6.06695e-06
0.770304 -0.000108023 -3.72607e-06
0.770661 -0.0001754 -6.65874e-05
0.778285 -0.00154853 -0.00187134
0.522844 -0.0603413 -0.0496706
0.94814 0.0150393 -0.0217868
0.915953 -0.223558 0.0112488
0.758172 -0.0497279 0.00155582
0.76417 -0.0100198 0.000136904
0.768837 -0.00215526 2.24274e-05
0.770026 -0.000479718 4.71442e-06
0.770316 -0.000119263 -4.17282e-06
0.770598 -0.000157012 -6.75822e-05
0.778363 -0.00116529 -0.00187553
0.561521 -0.0648713 -0.0546073
0.945324 0.0110975 -0.0188115
0.916084 -0.201981 0.00636386
0.768178 -0.0508259 0.00101021
0.766312 -0.0107342 9.54553e-05
0.769276 -0.0023391 1.56396e-05
0.770121 -0.000522253 3.23517e-06
0.770332 -0.000126488 -4.61671e-06
0.770554 -0.000127901 -6.82172e-05
0.77842 -0.000812655 -0.00187819
0.592938 -0.059882 -0.0586813
0.940676 0.00756237 -0.0171166
0.913677 -0.17974 0.00339993
0.776921 -0.0502844 0.000592521
0.768499 -0.0111237 5.53657e-05
0.769742 -0.00245786 8.76591e-06
0.770222 -0.000550655 1.68762e-06
0.770351 -0.000129716 -5.04585e-06
0.770528 -9.13223e-05 -6.86165e-05
0.778458 -0.000481434 -0.00187978
0.617092 -0.0474017 -0.0620001
0.936388 0.00540286 -0.0162503
0.911162 -0.158143 0.00153838
0.784569 -0.0484624 0.000302224