# vtk DataFile Version 2.0
TestTestTest
ASCII

DATASET STRUCTURED_GRID
DIMENSIONS 11 21 11
POINTS 2541 float
0 0 0
0.5 0 0
1 0 0
1.5 0 0
2 0 0
2.5 0 0
3 0 0
3.5 0 0
4 0 0
4.5 0 0
5 0 0
0 0.05 0
0.5 0.05 0
1 0.05 0
1.5 0.05 0
2 0.05 0
2.5 0.05 0
3 0.05 0
3.5 0.05 0
4 0.05 0
4.5 0.05 0
5 0.05 0
0 0.1 0
0.5 0.1 0
1 0.1 0
1.5 0.1 0
2 0.1 0
2.5 0.1 0
3 0.1 0
3.5 0.1 0
4 0.1 0
4.5 0.1 0
5 0.1 0
0 0.15 0
0.5 0.15 0
1 0.15 0
1.5 0.15 0
2 0.15 0
2.5 0.15 0
3 0.15 0
3.5 0.15 0
4 0.15 0
4.5 0.15 0
5 0.15 0
0 0.2 0
0.5 0.2 0
1 0.2 0
1.5 0.2 0
2 0.2 0
2.5 0.2 0
3 0.2 0
3.5 0.2 0
4 0.2 0
4.5 0.2 0
5 0.2 0
0 0.25 0
0.5 0.25 0
1 0.25 0
1.5 0.25 0
2 0.25 0
2.5 0.25 0
3 0.25 0
3.5 0.25 0
4 0.25 0
4.5 0.25 0
5 0.25 0
0 0.3 0
0.5 0.3 0
1 0.3 0
1.5 0.3 0
2 0.3 0
2.5 0.3 0
3 0.3 0
3.5 0.3 0
4 0.3 0
4.5 0.3 0
5 0.3 0
0 0.35 0
0.5 0.35 0
1 0.35 0
1.5 0.35 0
2 0.35 0
2.5 0.35 0
3 0.35 0
3.5 0.35 0
4 0.35 0
4.5 0.35 0
5 0.35 0
0 0.4 0
0.5 0.4 0
1 0.4 0
1.5 0.4 0
2 0.4 0
2.5 0.4 0
3 0.4 0
3.5 0.4 0
4 0.4 0
4.5 0.4 0
5 0.4 0
0 0.45 0
0.5 0.45 0
1 0.45 0
1.5 0.45 0
2 0.45 0
2.5 0.45 0
3 0.45 0
3.5 0.45 0
4 0.45 0
4.5 0.45 0
5 0.45 0
0 0.5 0
0.5 0.5 0
1 0.5 0
1.5 0.5 0
2 0.5 0
2.5 0.5 0
3 0.5 0
3.5 0.5 0
4 0.5 0
4.5 0.5 0
5 0.5 0
0 0.55 0
0.5 0.55 0
1 0.55 0
1.5 0.55 0
2 0.55 0
2.5 0.55 0
3 0.55 0
3.5 0.55 0
4 0.55 0
4.5 0.55 0
5 0.55 0
0 0.6 0
0.5 0.6 0
1 0.6 0
1.5 0.6 0
2 0.6 0
2.5 0.6 0
3 0.6 0
3.5 0.6 0
4 0.6 0
4.5 0.6 0
5 0.6 0
0 0.65 0
0.5 0.65 0
1 0.65 0
1.5 0.65 0
2 0.65 0
2.5 0.65 0
3 0.65 0
3.5 0.65 0
4 0.65 0
4.5 0.65 0
5 0.65 0
0 0.7 0
0.5 0.7 0
1 0.7 0
1.5 0.7 0
2 0.7 0
2.5 0.7 0
3 0.7 0
3.5 0.7 0
4 0.7 0
4.5 0.7 0
5 0.7 0
0 0.75 0
0.5 0.75 0
1 0.75 0
1.5 0.75 0
2 0.75 0
2.5 0.75 0
3 0.75 0
3.5 0.75 0
4 0.75 0
4.5 0.75 0
5 0.75 0
0 0.8 0
0.5 0.8 0
1 0.8 0
1.5 0.8 0
2 0.8 0
2.5 0.8 0
3 0.8 0
3.5 0.8 0
4 0.8 0
4.5 0.8 0
5 0.8 0
0 0.85 0
0.5 0.85 0
1 0.85 0
1.5 0.85 0
2 0.85 0
2.5 0.85 0
3 0.85 0
3.5 0.85 0
4 0.85 0
4.5 0.85 0
5 0.85 0
0 0.9 0
0.5 0.9 0
1 0.9 0
1.5 0.9 0
2 0.9 0
2.5 0.9 0
3 0.9 0
3.5 0.9 0
4 0.9 0
4.5 0.9 0
5 0.9 0
0 0.95 0
0.5 0.95 0
1 0.95 0
1.5 0.95 0
2 0.95 0
2.5 0.95 0
3 0.95 0
3.5 0.95 0
4 0.95 0
4.5 0.95 0
5 0.95 0
0 1 0
0.5 1 0
1 1 0
1.5 1 0
2 1 0
2.5 1 0
3 1 0
3.5 1 0
4 1 0
4.5 1 0
5 1 0
0 0 0.1
0.5 0 0.1
1 0 0.1
1.5 0 0.1
2 0 0.1
2.5 0 0.1
3 0 0.1
3.5 0 0.1
4 0 0.1
4.5 0 0.1
5 0 0.1
0 0.05 0.1
0.5 0.05 0.1
1 0.05 0.1
1.5 0.05 0.1
2 0.05 0.1
2.5 0.05 0.1
3 0.05 0.1
3.5 0.05 0.1
4 0.05 0.1
4.5 0.05 0.1
5 0.05 0.1
0 0.1 0.1
0.5 0.1 0.1
1 0.1 0.1
1.5 0.1 0.1
2 0.1 0.1
2.5 0.1 0.1
3 0.1 0.1
3.5 0.1 0.1
4 0.1 0.1
4.5 0.1 0.1
5 0.1 0.1
0 0.15 0.1
0.5 0.15 0.1
1 0.15 0.1
1.5 0.15 0.1
2 0.15 0.1
2.5 0.15 0.1
3 0.15 0.1
3.5 0.15 0.1
4 0.15 0.1
4.5 0.15 0.1
5 0.15 0.1
0 0.2 0.1
0.5 0.2 0.1
1 0.2 0.1
1.5 0.2 0.1
2 0.2 0.1
2.5 0.2 0.1
3 0.2 0.1
3.5 0.2 0.1
4 0.2 0.1
4.5 0.2 0.1
5 0.2 0.1
0 0.25 0.1
0.5 0.25 0.1
1 0.25 0.1
1.5 0.25 0.1
2 0.25 0.1
2.5 0.25 0.1
3 0.25 0.1
3.5 0.25 0.1
4 0.25 0.1
4.5 0.25 0.1
5 0.25 0.1
0 0.3 0.1
0.5 0.3 0.1
1 0.3 0.1
1.5 0.3 0.1
2 0.3 0.1
2.5 0.3 0.1
3 0.3 0.1
3.5 0.3 0.1
4 0.3 0.1
4.5 0.3 0.1
5 0.3 0.1
0 0.35 0.1
0.5 0.35 0.1
1 0.35 0.1
1.5 0.35 0.1
2 0.35 0.1
2.5 0.35 0.1
3 0.35 0.1
3.5 0.35 0.1
4 0.35 0.1
4.5 0.35 0.1
5 0.35 0.1
0 0.4 0.1
0.5 0.4 0.1
1 0.4 0.1
1.5 0.4 0.1
2 0.4 0.1
2.5 0.4 0.1
3 0.4 0.1
3.5 0.4 0.1
4 0.4 0.1
4.5 0.4 0.1
5 0.4 0.1
0 0.45 0.1
0.5 0.45 0.1
1 0.45 0.1
1.5 0.45 0.1
2 0.45 0.1
2.5 0.45 0.1
3 0.45 0.1
3.5 0.45 0.1
4 0.45 0.1
4.5 0.45 0.1
5 0.45 0.1
0 0.5 0.1
0.5 0.5 0.1
1 0.5 0.1
1.5 0.5 0.1
2 0.5 0.1
2.5 0.5 0.1
3 0.5 0.1
3.5 0.5 0.1
4 0.5 0.1
4.5 0.5 0.1
5 0.5 0.1
0 0.55 0.1
0.5 0.55 0.1
1 0.55 0.1
1.5 0.55 0.1
2 0.55 0.1
2.5 0.55 0.1
3 0.55 0.1
3.5 0.55 0.1
4 0.55 0.1
4.5 0.55 0.1
5 0.55 0.1
0 0.6 0.1
0.5 0.6 0.1
1 0.6 0.1
1.5 0.6 0.1
2 0.6 0.1
2.5 0.6 0.1
3 0.6 0.1
3.5 0.6 0.1
4 0.6 0.1
4.5 0.6 0.1
5 0.6 0.1
0 0.65 0.1
0.5 0.65 0.1
1 0.65 0.1
1.5 0.65 0.1
2 0.65 0.1
2.5 0.65 0.1
3 0.65 0.1
3.5 0.65 0.1
4 0.65 0.1
4.5 0.65 0.1
5 0.65 0.1
0 0.7 0.1
0.5 0.7 0.1
1 0.7 0.1
1.5 0.7 0.1
2 0.7 0.1
2.5 0.7 0.1
3 0.7 0.1
3.5 0.7 0.1
4 0.7 0.1
4.5 0.7 0.1
5 0.7 0.1
0 0.75 0.1
0.5 0.75 0.1
1 0.75 0.1
1.5 0.75 0.1
2 0.75 0.1
2.5 0.75 0.1
3 0.75 0.1
3.5 0.75 0.1
4 0.75 0.1
4.5 0.75 0.1
5 0.75 0.1
0 0.8 0.1
0.5 0.8 0.1
1 0.8 0.1
1.5 0.8 0.1
2 0.8 0.1
2.5 0.8 0.1
3 0.8 0.1
3.5 0.8 0.1
4 0.8 0.1
4.5 0.8 0.1
5 0.8 0.1
0 0.85 0.1
0.5 0.85 0.1
1 0.85 0.1
1.5 0.85 0.1
2 0.85 0.1
2.5 0.85 0.1
3 0.85 0.1
3.5 0.85 0.1
4 0.85 0.1
4.5 0.85 0.1
5 0.85 0.1
0 0.9 0.1
0.5 0.9 0.1
1 0.9 0.1
1.5 0.9 0.1
2 0.9 0.1
2.5 0.9 0.1
3 0.9 0.1
3.5 0.9 0.1
4 0.9 0.1
4.5 0.9 0.1
5 0.9 0.1
0 0.95 0.1
0.5 0.95 0.1
1 0.95 0.1
1.5 0.95 0.1
2 0.95 0.1
2.5 0.95 0.1
3 0.95 0.1
3.5 0.95 0.1
4 0.95 0.1
4.5 0.95 0.1
5 0.95 0.1
0 1 0.1
0.5 1 0.1
1 1 0.1
1.5 1 0.1
2 1 0.1
2.5 1 0.1
3 1 0.1
3.5 1 0.1
4 1 0.1
4.5 1 0.1
5 1 0.1
0 0 0.2
0.5 0 0.2
1 0 0.2
1.5 0 0.2
2 0 0.2
2.5 0 0.2
3 0 0.2
3.5 0 0.2
4 0 0.2
4.5 0 0.2
5 0 0.2
0 0.05 0.2
0.5 0.05 0.2
1 0.05 0.2
1.5 0.05 0.2
2 0.05 0.2
2.5 0.05 0.2
3 0.05 0.2
3.5 0.05 0.2
4 0.05 0.2
4.5 0.05 0.2
5 0.05 0.2
0 0.1 0.2
0.5 0.1 0.2
1 0.1 0.2
1.5 0.1 0.2
2 0.1 0.2
2.5 0.1 0.2
3 0.1 0.2
3.5 0.1 0.2
4 0.1 0.2
4.5 0.1 0.2
5 0.1 0.2
0 0.15 0.2
0.5 0.15 0.2
1 0.15 0.2
1.5 0.15 0.2
2 0.15 0.2
2.5 0.15 0.2
3 0.15 0.2
3.5 0.15 0.2
4 0.15 0.2
4.5 0.15 0.2
5 0.15 0.2
0 0.2 0.2
0.5 0.2 0.2
1 0.2 0.2
1.5 0.2 0.2
2 0.2 0.2
2.5 0.2 0.2
3 0.2 0.2
3.5 0.2 0.2
4 0.2 0.2
4.5 0.2 0.2
5 0.2 0.2
0 0.25 0.2
0.5 0.25 0.2
1 0.25 0.2
1.5 0.25 0.2
2 0.25 0.2
2.5 0.25 0.2
3 0.25 0.2
3.5 0.25 0.2
4 0.25 0.2
4.5 0.25 0.2
5 0.25 0.2
0 0.3 0.2
0.5 0.3 0.2
1 0.3 0.2
1.5 0.3 0.2
2 0.3 0.2
2.5 0.3 0.2
3 0.3 0.2
3.5 0.3 0.2
4 0.3 0.2
4.5 0.3 0.2
5 0.3 0.2
0 0.35 0.2
0.5 0.35 0.2
1 0.35 0.2
1.5 0.35 0.2
2 0.35 0.2
2.5 0.35 0.2
3 0.35 0.2
3.5 0.35 0.2
4 0.35 0.2
4.5 0.35 0.2
5 0.35 0.2
0 0.4 0.2
0.5 0.4 0.2
1 0.4 0.2
1.5 0.4 0.2
2 0.4 0.2
2.5 0.4 0.2
3 0.4 0.2
3.5 0.4 0.2
4 0.4 0.2
4.5 0.4 0.2
5 0.4 0.2
0 0.45 0.2
0.5 0.45 0.2
1 0.45 0.2
1.5 0.45 0.2
2 0.45 0.2
2.5 0.45 0.2
3 0.45 0.2
3.5 0.45 0.2
4 0.45 0.2
4.5 0.45 0.2
5 0.45 0.2
0 0.5 0.2
0.5 0.5 0.2
1 0.5 0.2
1.5 0.5 0.2
2 0.5 0.2
2.5 0.5 0.2
3 0.5 0.2
3.5 0.5 0.2
4 0.5 0.2
4.5 0.5 0.2
5 0.5 0.2
0 0.55 0.2
0.5 0.55 0.2
1 0.55 0.2
1.5 0.55 0.2
2 0.55 0.2
2.5 0.55 0.2
3 0.55 0.2
3.5 0.55 0.2
4 0.55 0.2
4.5 0.55 0.2
5 0.55 0.2
0 0.6 0.2
0.5 0.6 0.2
1 0.6 0.2
1.5 0.6 0.2
2 0.6 0.2
2.5 0.6 0.2
3 0.6 0.2
3.5 0.6 0.2
4 0.6 0.2
4.5 0.6 0.2
5 0.6 0.2
0 0.65 0.2
0.5 0.65 0.2
1 0.65 0.2
1.5 0.65 0.2
2 0.65 0.2
2.5 0.65 0.2
3 0.65 0.2
3.5 0.65 0.2
4 0.65 0.2
4.5 0.65 0.2
5 0.65 0.2
0 0.7 0.2
0.5 0.7 0.2
1 0.7 0.2
1.5 0.7 0.2
2 0.7 0.2
2.5 0.7 0.2
3 0.7 0.2
3.5 0.7 0.2
4 0.7 0.2
4.5 0.7 0.2
5 0.7 0.2
0 0.75 0.2
0.5 0.75 0.2
1 0.75 0.2
1.5 0.75 0.2
2 0.75 0.2
2.5 0.75 0.2
3 0.75 0.2
3.5 0.75 0.2
4 0.75 0.2
4.5 0.75 0.2
5 0.75 0.2
0 0.8 0.2
0.5 0.8 0.2
1 0.8 0.2
1.5 0.8 0.2
2 0.8 0.2
2.5 0.8 0.2
3 0.8 0.2
3.5 0.8 0.2
4 0.8 0.2
4.5 0.8 0.2
5 0.8 0.2
0 0.85 0.2
0.5 0.85 0.2
1 0.85 0.2
1.5 0.85 0.2
2 0.85 0.2
2.5 0.85 0.2
3 0.85 0.2
3.5 0.85 0.2
4 0.85 0.2
4.5 0.85 0.2
5 0.85 0.2
0 0.9 0.2
0.5 0.9 0.2
1 0.9 0.2
1.5 0.9 0.2
2 0.9 0.2
2.5 0.9 0.2
3 0.9 0.2
3.5 0.9 0.2
4 0.9 0.2
4.5 0.9 0.2
5 0.9 0.2
0 0.95 0.2
0.5 0.95 0.2
1 0.95 0.2
1.5 0.95 0.2
2 0.95 0.2
2.5 0.95 0.2
3 0.95 0.2
3.5 0.95 0.2
4 0.95 0.2
4.5 0.95 0.2
5 0.95 0.2
0 1 0.2
0.5 1 0.2
1 1 0.2
1.5 1 0.2
2 1 0.2
2.5 1 0.2
3 1 0.2
3.5 1 0.2
4 1 0.2
4.5 1 0.2
5 1 0.2
0 0 0.3
0.5 0 0.3
1 0 0.3
1.5 0 0.3
2 0 0.3
2.5 0 0.3
3 0 0.3
3.5 0 0.3
4 0 0.3
4.5 0 0.3
5 0 0.3
0 0.05 0.3
0.5 0.05 0.3
1 0.05 0.3
1.5 0.05 0.3
2 0.05 0.3
2.5 0.05 0.3
3 0.05 0.3
3.5 0.05 0.3
4 0.05 0.3
4.5 0.05 0.3
5 0.05 0.3
0 0.1 0.3
0.5 0.1 0.3
1 0.1 0.3
1.5 0.1 0.3
2 0.1 0.3
2.5 0.1 0.3
3 0.1 0.3
3.5 0.1 0.3
4 0.1 0.3
4.5 0.1 0.3
5 0.1 0.3
0 0.15 0.3
0.5 0.15 0.3
1 0.15 0.3
1.5 0.15 0.3
2 0.15 0.3
2.5 0.15 0.3
3 0.15 0.3
3.5 0.15 0.3
4 0.15 0.3
4.5 0.15 0.3
5 0.15 0.3
0 0.2 0.3
0.5 0.2 0.3
1 0.2 0.3
1.5 0.2 0.3
2 0.2 0.3
2.5 0.2 0.3
3 0.2 0.3
3.5 0.2 0.3
4 0.2 0.3
4.5 0.2 0.3
5 0.2 0.3
0 0.25 0.3
0.5 0.25 0.3
1 0.25 0.3
1.5 0.25 0.3
2 0.25 0.3
2.5 0.25 0.3
3 0.25 0.3
3.5 0.25 0.3
4 0.25 0.3
4.5 0.25 0.3
5 0.25 0.3
0 0.3 0.3
0.5 0.3 0.3
1 0.3 0.3
1.5 0.3 0.3
2 0.3 0.3
2.5 0.3 0.3
3 0.3 0.3
3.5 0.3 0.3
4 0.3 0.3
4.5 0.3 0.3
5 0.3 0.3
0 0.35 0.3
0.5 0.35 0.3
1 0.35 0.3
1.5 0.35 0.3
2 0.35 0.3
2.5 0.35 0.3
3 0.35 0.3
3.5 0.35 0.3
4 0.35 0.3
4.5 0.35 0.3
5 0.35 0.3
0 0.4 0.3
0.5 0.4 0.3
1 0.4 0.3
1.5 0.4 0.3
2 0.4 0.3
2.5 0.4 0.3
3 0.4 0.3
3.5 0.4 0.3
4 0.4 0.3
4.5 0.4 0.3
5 0.4 0.3
0 0.45 0.3
0.5 0.45 0.3
1 0.45 0.3
1.5 0.45 0.3
2 0.45 0.3
2.5 0.45 0.3
3 0.45 0.3
3.5 0.45 0.3
4 0.45 0.3
4.5 0.45 0.3
5 0.45 0.3
0 0.5 0.3
0.5 0.5 0.3
1 0.5 0.3
1.5 0.5 0.3
2 0.5 0.3
2.5 0.5 0.3
3 0.5 0.3
3.5 0.5 0.3
4 0.5 0.3
4.5 0.5 0.3
5 0.5 0.3
0 0.55 0.3
0.5 0.55 0.3
1 0.55 0.3
1.5 0.55 0.3
2 0.55 0.3
2.5 0.55 0.3
3 0.55 0.3
3.5 0.55 0.3
4 0.55 0.3
4.5 0.55 0.3
5 0.55 0.3
0 0.6 0.3
0.5 0.6 0.3
1 0.6 0.3
1.5 0.6 0.3
2 0.6 0.3
2.5 0.6 0.3
3 0.6 0.3
3.5 0.6 0.3
4 0.6 0.3
4.5 0.6 0.3
5 0.6 0.3
0 0.65 0.3
0.5 0.65 0.3
1 0.65 0.3
1.5 0.65 0.3
2 0.65 0.3
2.5 0.65 0.3
3 0.65 0.3
3.5 0.65 0.3
4 0.65 0.3
4.5 0.65 0.3
5 0.65 0.3
0 0.7 0.3
0.5 0.7 0.3
1 0.7 0.3
1.5 0.7 0.3
2 0.7 0.3
2.5 0.7 0.3
3 0.7 0.3
3.5 0.7 0.3
4 0.7 0.3
4.5 0.7 0.3
5 0.7 0.3
0 0.75 0.3
0.5 0.75 0.3
1 0.75 0.3
1.5 0.75 0.3
2 0.75 0.3
2.5 0.75 0.3
3 0.75 0.3
3.5 0.75 0.3
4 0.75 0.3
4.5 0.75 0.3
5 0.75 0.3
0 0.8 0.3
0.5 0.8 0.3
1 0.8 0.3
1.5 0.8 0.3
2 0.8 0.3
2.5 0.8 0.3
3 0.8 0.3
3.5 0.8 0.3
4 0.8 0.3
4.5 0.8 0.3
5 0.8 0.3
0 0.85 0.3
0.5 0.85 0.3
1 0.85 0.3
1.5 0.85 0.3
2 0.85 0.3
2.5 0.85 0.3
3 0.85 0.3
3.5 0.85 0.3
4 0.85 0.3
4.5 0.85 0.3
5 0.85 0.3
0 0.9 0.3
0.5 0.9 0.3
1 0.9 0.3
1.5 0.9 0.3
2 0.9 0.3
2.5 0.9 0.3
3 0.9 0.3
3.5 0.9 0.3
4 0.9 0.3
4.5 0.9 0.3
5 0.9 0.3
0 0.95 0.3
0.5 0.95 0.3
1 0.95 0.3
1.5 0.95 0.3
2 0.95 0.3
2.5 0.95 0.3
3 0.95 0.3
3.5 0.95 0.3
4 0.95 0.3
4.5 0.95 0.3
5 0.95 0.3
0 1 0.3
0.5 1 0.3
1 1 0.3
1.5 1 0.3
2 1 0.3
2.5 1 0.3
3 1 0.3
3.5 1 0.3
4 1 0.3
4.5 1 0.3
5 1 0.3
0 0 0.4
[...]
CELL_DATA 2000
SCALARS pressure float 1
LOOKUP_TABLE default
0
0
0.822921
1.0303
0.859365
0.695554
0.531875
0.368223
0.203712
0.0244815
0
0
0.825901
1.02222
0.858794
0.695456
0.531852
0.368222
0.203775
0.0275048
0
0
0.788183
1.01808
0.858146
0.695355
0.531829
0.368223
0.203892
0.030112
0
0
0.790387
1.0079
0.857491
0.695259
0.531807
0.368228
0.204039
0.032271
2.17867
2.3738
0.81545
1.00012
0.856901
0.695173
0.531784
0.368233
0.204195
0.0340287
2.17157
2.34219
0.875361
0.996388
0.856479
0.695101
0.531763
0.368239
0.204344
0.0354284
2.15883
2.30123
0.942231
0.996198
0.856275
0.695048
0.531743
0.368244
0.204475
0.0365062
2.14163
2.25836
1.00753
0.998508
0.856299
0.695014
0.531725
0.368247
0.20458
0.0372902
2.12323
2.2172
1.06764
1.00256
0.856535
0.695001
0.531709
0.368246
0.204652
0.0378013
2.106
2.17952
1.12133
1.00774
0.856945
0.695006
0.531693
0.368243
0.204688
0.0380531
2.09104
2.146
1.16832
1.01352
0.857487
0.695026
0.531679
0.368235
0.204685
0.0380526
2.07922
2.11677
1.20876
1.0195
0.85811
0.695056
0.531665
0.368224
0.204644
0.0377997
2.07126
2.09169
1.24301
1.02533
0.858766
0.69509
0.531651
0.368209
0.204567
0.0372875
2.06747
2.07056
1.27152
1.03076
0.859408
0.695124
0.531638
0.368192
0.204457
0.0365025
2.06752
2.05317
1.29476
1.03559
0.859992
0.695151
0.531623
0.368172
0.204321
0.0354238
2.07105
2.03936
1.31315
1.03964
0.860481
0.695166
0.531608
0.368152
0.204167
0.0340231
2.07743
2.02903
1.32706
1.04281
0.860844
0.695166
0.531592
0.368133
0.204007
0.0322645
2.0848
2.02205
1.33681
1.045
0.861054
0.695147
0.531574
0.368116
0.203857
0.0301047
2.09045
2.01836
1.34264
1.04616
0.861097
0.695107
0.531555
0.368102
0.203736
0.0274967
2.09373
2.01766
1.34459
1.04626
0.860967
0.695047
0.531536
0.368092
0.203671
0.0244727
0
0
0.819775
1.0261
0.858892
0.695457
0.531854
0.368236
0.203953
0.0295248
0
0
0.822393
1.01907
0.858263
0.695347
0.53183
0.368234
0.204027
0.0330417
0
0
0.776346
1.01555
0.857663
0.69525
0.531807
0.368236
0.204154
0.0357582
0
0
0.809464
1.00707
0.857045
0.695162
0.531786
0.368241
0.204307
0.0379759
2.16224
2.47993
0.709153
0.996382
0.856493
0.695086
0.531766
0.368248
0.204467
0.0397683
2.15405
2.42448
0.796173
0.991155
0.856117
0.695028
0.531748
0.368254
0.204618
0.041189
2.14129
2.35262
0.892605
0.99243
0.855983
0.69499
0.531732
0.36826
0.204751
0.0422796
2.12541
2.29182
0.976754
0.996017
0.856088
0.694973
0.531717
0.368264
0.204857
0.0430714
2.10718
2.24032
1.04861
1.00099
0.856404
0.694976
0.531704
0.368264
0.20493
0.043587
2.08822
2.19663
1.10968
1.00681
0.856889
0.694998
0.531693
0.368262
0.204966
0.0438409
2.07167
2.15936
1.16136
1.01307
0.857497
0.695033
0.531682
0.368255
0.204964
0.0438405
2.05901
2.12756
1.20482
1.01938
0.858179
0.695078
0.531672
0.368245
0.204923
0.0435856
2.05085
2.10045
1.24103
1.02546
0.858885
0.695126
0.531662
0.368231
0.204845
0.0430691
2.0475
2.07746
1.2708
1.03107
0.859568
0.695172
0.531652
0.368214
0.204735
0.0422764
2.04878
2.05821
1.2948
1.03602
0.860188
0.69521
0.531641
0.368195
0.204597
0.0411849
2.05368
2.04242
1.3136
1.04016
0.860705
0.695234
0.531628
0.368176
0.204441
0.0397633
2.05947
2.03013
1.32768
1.04339
0.861088
0.695241
0.531613
0.368156
0.204278
0.0379701
2.06509
2.02152
1.33743
1.04561
0.861313
0.695227
0.531597
0.368139
0.204121
0.0357516
2.07041
2.01659
1.34312
1.04677
0.861361
0.695189
0.531578
0.368125
0.20399
0.0330344
2.07468
2.01565
1.34493
1.0468
0.861207
0.695122
0.531557
0.368115
0.203914
0.0295167
0
0
0.81682
1.02286
0.858545
0.695381
0.531839
0.368259
0.204277
0.0330667
0
0
0.816188
1.017
0.857935
0.695273
0.531814
0.368257
0.204354
0.0366586
0
0
0.77744
1.01444
0.857384
0.69518
0.531793
0.36826
0.204486
0.0394323
0
0
0.81131
1.0078
0.856829
0.695098
0.531773
0.368266
0.204643
0.0416922
2.14738
2.53838
0.639803
0.995676
0.856304
0.695031
0.531755
0.368273
0.204806
0.0435145
2.1378
2.51513
0.704372
0.987313
0.855909
0.694981
0.531739
0.36828
0.204961
0.044956
2.12656
2.42057
0.83404
0.987669
0.855755
0.694951
0.531725
0.368287
0.205096
0.0460606
2.11817
2.34133
0.93875
0.9922
0.855871
0.694944
0.531713
0.368291
0.205203
0.0468616
2.11082
2.27763
1.02367
0.998075
0.856221
0.694957
0.531703
0.368293
0.205277
0.0473827
2.10202
2.2257
1.09351
1.00464
0.856749
0.694989
0.531694
0.368291
0.205314
0.0476393
2.0913
2.18301
1.15116
1.01149
0.857402
0.695034
0.531686
0.368285
0.205312
0.0476389
2.08037
2.14738
1.19871
1.01828
0.858128
0.695089
0.531679
0.368275
0.205271
0.0473815
2.07193
2.1172
1.2377
1.02473
0.858876
0.695146
0.531671
0.368262
0.205192
0.0468595
2.06621
2.09148
1.26933
1.03064
0.859598
0.695201
0.531663
0.368246
0.205081
0.0460577
2.06091
2.06971
1.29453
1.03581
0.860251
0.695246
0.531654
0.368227
0.204941
0.0449522
2.05481
2.05162
1.31402
1.04013
0.860797
0.695278
0.531643
0.368208
0.204783
0.0435099
2.04901
2.03688
1.32834
1.0435
0.861208
0.695291
0.53163
0.368188
0.204616
0.0416868
2.04665
2.02576
1.33806
1.04583
0.861455
0.695281
0.531614
0.368171
0.204455
0.0394262
2.05029
2.01897
1.34365
1.04704
0.861514
0.695245
0.531596
0.368156
0.20432
0.0366517
2.05626
2.01707
1.34536
1.04708
0.861361
0.695177
0.531575
0.368146
0.204239
0.0330591
0
0
0.80953
1.02131
0.858331
0.695333
0.531829
0.368283
0.204551
0.0352636
0
0
0.807424
1.01573
0.857735
0.695225
0.531805
0.368281
0.20463
0.038872
0
0
0.765929
1.01357
0.857215
0.695136
0.531784
0.368284
0.204764
0.0416663
0
0
0.79131
1.00745
0.856702
0.695059
0.531765
0.36829
0.204923
0.0439456
2.1407
2.58839
0.614505
0.995505
0.856223
0.694998
0.531748
0.368298
0.205088
0.0457841
2.13061
2.56752
0.659998
0.986772
0.855863
0.694955
0.531734
0.368306
0.205245
0.0472384
2.12122
2.46754
0.793595
0.98624
0.855697
0.694931
0.531721
0.368313
0.205381
0.0483525
2.119
2.37986
0.909638
0.990302
0.855771
0.694927
0.531711
0.368318
0.20549
0.0491601
2.12387
2.30912
1.00366
0.996088
0.856094
0.694944
0.531702
0.36832
0.205564
0.0496854
2.13068
2.25134
1.07996
1.00279
0.856614
0.69498
0.531695
0.368318
0.205601
0.049944
2.13329
2.20304
1.14235
1.00986
0.857272
0.695029
0.531689
0.368313
0.205599
0.0499436
2.12957
2.16267
1.19343
1.01691
0.858011
0.695089
0.531683
0.368304
0.205558
0.0496842
2.12084
2.12952
1.23503
1.02362
0.858778
0.695151
0.531678
0.368291
0.205479
0.0491581
2.10729
2.10252
1.26842
1.02978
0.859526
0.695211
0.531671
0.368274
0.205366
0.0483497
2.08791
2.07997
1.29453
1.03523
0.860216
0.695263
0.531663
0.368256
0.205226
0.0472348
2.06547
2.06043
1.31435
1.03981
0.860803
0.6953
0.531653
0.368237
0.205065
0.0457798
2.04684
2.04384
1.32878
1.04337
0.861247
0.695318
0.531641
0.368218
0.204896
0.0439405
2.03796
2.03092
1.33852
1.04582
0.861516
0.695312
0.531626
0.3682
0.204734
0.0416605
2.0397
2.02262
1.34407
1.0471
0.861588
0.695278
0.531609
0.368185
0.204597
0.0388655
2.04634
2.01991
1.34572
1.04716
0.86144
0.695211
0.531587
0.368175
0.204515
0.0352563
0
0
0.803837
1.02059
0.858228
0.695309
0.531825
0.368297
0.204704
0.0363098
0
0
0.800773
1.01507
0.85764
0.695202
0.531801
0.368295
0.204783
0.0399226
0
0
0.757174
1.01303
0.857134
0.695114
0.53178
0.368299
0.204918
0.0427236
0
0
0.779884
1.00706
0.85664
0.69504
0.531761
0.368305
0.205078
0.0450101
2.13866
2.61274
0.601568
0.995229
0.856184
0.694983
0.531745
0.368313
0.205244
0.0468553
2.12844
2.59178
0.645068
0.986571
0.855848
0.694943
0.531731
0.368321
0.205402
0.0483152
2.12082
2.49028
0.776647
0.986149
0.855708
0.694924
0.53172
0.368328
0.205539
0.0494338
2.1231
2.40034
0.893889
0.990274
0.855797
0.694924
0.53171
0.368334
0.205648
0.0502447
2.13475
2.32668
0.991403
0.995802
0.856095
0.694942
0.531702
0.368336
0.205723
0.050772
2.15058
2.26547
1.07189
1.00207
0.856563
0.694976
0.531696
0.368335
0.20576
0.0510317
2.16339
2.21363
1.13771
1.00883
0.857174
0.695024
0.531691
0.368329
0.205758
0.0510313
2.16617
2.16987
1.19114
1.01581
0.857892
0.695083
0.531686
0.36832
0.205717
0.0507709
2.15724
2.13499
1.23408
1.02269
0.858671
0.695148
0.53168
0.368307
0.205638
0.0502427
2.13682
2.10793
1.26806
1.02913
0.859453
0.695212
0.531675
0.368291
0.205524
0.0494311
2.10687
2.08537
1.29447
1.03482
0.860176
0.695268
0.531667
0.368273
0.205383
0.0483117
2.07501
2.06551
1.31447
1.03957
0.860789
0.69531
0.531658
0.368254
0.205222
0.0468511
2.04927
2.04818
1.32899
1.04324
0.861252
0.69533
0.531647
0.368235
0.205052
0.0450051
2.03569
2.03431
1.33876
1.04576
0.861534
0.695326
0.531632
0.368217
0.204889
0.0427179
2.03563
2.02518
1.3443
1.04709
0.861615
0.695293
0.531615
0.368202
0.204751
0.0399162
2.04249
2.02201
1.34592
1.04717
0.861471
0.695227
0.531594
0.368192
0.204669
0.0363027
0
0
0.803837
1.02059
0.858228
0.695309
0.531825
0.368297
0.204704
0.0363098
0
0
0.800773
1.01507
0.85764
0.695202
0.531801
0.368295
0.204783
0.0399226
0
0
0.757174
1.01303
0.857134
0.695114
0.53178
0.368299
0.204918
0.0427236
0
0
0.779884
1.00706
0.85664
0.69504
0.531761
0.368305
0.205078
0.0450101
2.13866
2.61274
0.601568
0.995229
0.856184
0.694983
0.531745
0.368313
0.205244
0.0468553
2.12844
2.59178
0.645068
0.986571
0.855848
0.694943
0.531731
0.368321
0.205402
0.0483152
2.12082
2.49028
0.776647
0.986149
0.855708
0.694924
0.53172
0.368328
0.205539
0.0494338
2.1231
2.40034
0.893889
0.990274
0.855797
0.694924
0.53171
0.368334
0.205648
0.0502447
2.13475
2.32668
0.991403
0.995802
0.856095
0.694942
0.531702
0.368336
0.205723
0.050772
2.15058
2.26547
1.07189
1.00207
0.856563
0.694976
0.531696
0.368335
0.20576
0.0510317
2.16339
2.21363
1.13771
1.00883
0.857174
0.695024
0.531691
0.368329
0.205758
0.0510313
2.16617
2.16987
1.19114
1.01581
0.857892
0.695083
0.531686
0.36832
0.205717
0.0507709
2.15724
2.13499
1.23408
1.02269
0.858671
0.695148
0.53168
0.368307
0.205638
0.0502427
2.13682
2.10793
1.26806
1.02913
0.859453
0.695212
0.531675
0.368291
0.205524
0.0494311
2.10687
2.08537
1.29447
1.03482
0.860176
0.695268
0.531667
0.368273
0.205383
0.0483117
2.07501
2.06551
1.31447
1.03957
0.860789
0.69531
0.531658
0.368254
0.205222
0.0468511
2.04927
2.04818
1.32899
1.04324
0.861252
0.69533
0.531647
0.368235
0.205052
0.0450051
2.03569
2.03431
1.33876
1.04576
0.861534
0.695326
0.531632
0.368217
0.204889
0.0427179
2.03563
2.02518
1.3443
1.04709
0.861615
0.695293
0.531615
0.368202
0.204751
0.0399162
2.04249
2.02201
1.34592
1.04717
0.861471
0.695227
0.531594
0.368192
0.204669
0.0363027
0
0
0.80953
1.02131
0.858331
0.695333
0.531829
0.368283
0.204551
0.0352636
0
0
0.807424
1.01573
0.857735
0.695225
0.531805
0.368281
0.20463
0.038872
0
0
0.765929
1.01357
0.857215
0.695136
0.531784
0.368284
0.204764
0.0416663
0
0
0.79131
1.00745
0.856702
0.695059
0.531765
0.36829
0.204923
0.0439456
2.1407
2.58839
0.614505
0.995505
0.856223
0.694998
0.531748
0.368298
0.205088
0.0457841
2.13061
2.56752
0.659998
0.986772
0.855863
0.694955
0.531734
0.368306
0.205245
0.0472384
2.12122
2.46754
0.793595
0.98624
0.855697
0.694931
0.531721
0.368313
0.205381
0.0483525
2.119
2.37986
0.909638
0.990302
0.855771
0.694927
0.531711
0.368318
0.20549
0.0491601
2.12387
2.30912
1.00366
0.996088
0.856094
0.694944
0.531702
0.36832
0.205564
0.0496854
2.13068
2.25134
1.07996
1.00279
0.856614
0.69498
0.531695
0.368318
0.205601
0.049944
2.13329
2.20304
1.14235
1.00986
0.857272
0.695029
0.531689
0.368313
0.205599
0.0499436
2.12957
2.16267
1.19343
1.01691
0.858011
0.695089
0.531683
0.368304
0.205558
0.0496842
2.12084
2.12952
1.23503
1.02362
0.858778
0.695151
0.531678
0.368291
0.205479
0.0491581
2.10729
2.10252
1.26842
1.02978
0.859526
0.695211
0.531671
0.368274
0.205366
0.0483497
2.08791
2.07997
1.29453
1.03523
0.860216
0.695263
0.531663
0.368256
0.205226
0.0472348
2.06547
2.06043
1.31435
1.03981
0.860803
0.6953
0.531653
0.368237
0.205065
0.0457798
2.04684
2.04384
1.32878
1.04337
0.861247
0.695318
0.531641
0.368218
0.204896
0.0439405
2.03796
2.03092
1.33852
1.04582
0.861516
0.695312
0.531626
0.3682
0.204734
0.0416605
2.0397
2.02262
1.34407
1.0471
0.861588
0.695278
0.531609
0.368185
0.204597
0.0388655
2.04634
2.01991
1.34572
1.04716
0.86144
0.695211
0.531587
0.368175
0.204515
0.0352563
0
0
0.81682
1.02286
0.858545
0.695381
0.531839
0.368259
0.204277
0.0330667
0
0
0.816188
1.017
0.857935
0.695273
0.531814
0.368257
0.204354
0.0366586
0
0
0.77744
1.01444
0.857384
0.69518
0.531793
0.36826
0.204486
0.0394323
0
0
0.81131
1.0078
0.856829
0.695098
0.531773
0.368266
0.204643
0.0416922
2.14738
2.53838
0.639803
0.995676
0.856304
0.695031
0.531755
0.368273
0.204806
0.0435145
2.1378
2.51513
0.704372
0.987313
0.855909
0.694981
0.531739
0.36828
0.204961
0.044956
2.12656
2.42057
0.83404
0.987669
0.855755
0.694951
0.531725
0.368287
0.205096
0.0460606
2.11817
2.34133
0.93875
0.9922
0.855871
0.694944
0.531713
0.368291
0.205203
0.0468616
2.11082
2.27763
1.02367
0.998075
0.856221
0.694957
0.531703
0.368293
0.205277
0.0473827
2.10202
2.2257
1.09351
1.00464
0.856749
0.694989
0.531694
0.368291
0.205314
0.0476393
2.0913
2.18301
1.15116
1.01149
0.857402
0.695034
0.531686
0.368285
0.205312
0.0476389
2.08037
2.14738
1.19871
1.01828
0.858128
0.695089
0.531679
0.368275
0.205271
0.0473815
2.07193
2.1172
1.2377
1.02473
0.858876
0.695146
0.531671
0.368262
0.205192
0.0468595
2.06621
2.09148
1.26933
1.03064
0.859598
0.695201
0.531663
0.368246
0.205081
0.0460577
2.06091
2.06971
1.29453
1.03581
0.860251
0.695246
0.531654
0.368227
0.204941
0.0449522
2.05481
2.05162
1.31402
1.04013
0.860797
0.695278
0.531643
0.368208
0.204783
0.0435099
2.04901
2.03688
1.32834
1.0435
0.861208
0.695291
0.53163
0.368188
0.204616
0.0416868
2.04665
2.02576
1.33806
1.04583
0.861455
0.695281
0.531614
0.368171
0.204455
0.0394262
2.05029
2.01897
1.34365
1.04704
0.861514
0.695245
0.531596
0.368156
0.20432
0.0366517
2.05626
2.01707
1.34536
1.04708
0.861361
0.695177
0.531575
0.368146
0.204239
0.0330591
0
0
0.819775
1.0261
0.858892
0.695457
0.531854
0.368236
0.203953
0.0295248
0
0
0.822393
1.01907
0.858263
0.695347
0.53183
0.368234
0.204027
0.0330417
0
0
0.776346
1.01555
0.857663
0.69525
0.531807
0.368236
0.204154
0.0357582
0
0
0.809464
1.00707
0.857045
0.695162
0.531786
0.368241
0.204307
0.0379759
2.16224
2.47993
0.709153
0.996382
0.856493
0.695086
0.531766
0.368248
0.204467
0.0397683
2.15405
2.42448
0.796173
0.991155
0.856117
0.695028
0.531748
0.368254
0.204618
0.041189
2.14129
2.35262
0.892605
0.99243
0.855983
0.69499
0.531732
0.36826
0.204751
0.0422796
2.12541
2.29182
0.976754
0.996017
0.856088
0.694973
0.531717
0.368264
0.204857
0.0430714
2.10718
2.24032
1.04861
1.00099
0.856404
0.694976
0.531704
0.368264
0.20493
0.043587
2.08822
2.19663
1.10968
1.00681
0.856889
0.694998
0.531693
0.368262
0.204966
0.0438409
2.07167
2.15936
1.16136
1.01307
0.857497
0.695033
0.531682
0.368255
0.204964
0.0438405
2.05901
2.12756
1.20482
1.01938
0.858179
0.695078
0.531672
0.368245
0.204923
0.0435856
2.05085
2.10045
1.24103
1.02546
0.858885
0.695126
0.531662
0.368231
0.204845
0.0430691
2.0475
2.07746
1.2708
1.03107
0.859568
0.695172
0.531652
0.368214
0.204735
0.0422764
2.04878
2.05821
1.2948
1.03602
0.860188
0.69521
0.531641
0.368195
0.204597
0.0411849
2.05368
2.04242
1.3136
1.04016
0.860705
0.695234
0.531628
0.368176
0.204441
0.0397633
2.05947
2.03013
1.32768
1.04339
0.861088
0.695241
0.531613
0.368156
0.204278
0.0379701
2.06509
2.02152
1.33743
1.04561
0.861313
0.695227
0.531597
0.368139
0.204121
0.0357516
2.07041
2.01659
1.34312
1.04677
0.861361
0.695189
0.531578
0.368125
0.20399
0.0330344
2.07468
2.01565
1.34493
1.0468
0.861207
0.695122
0.531557
0.368115
0.203914
0.0295167
0
0
0.822921
1.0303
0.859365
0.695554
0.531875
0.368223
0.203712
0.0244815
0
0
0.825901
1.02222
0.858794
0.695456
0.531852
0.368222
0.203775
0.0275048
0
0
0.788183
1.01808
0.858146
0.695355
0.531829
0.368223
0.203892
0.030112
0
0
0.790387
1.0079
0.857491
0.695259
0.531807
0.368228
0.204039
0.032271
2.17867
2.3738
0.81545
1.00012
0.856901
0.695173
0.531784
0.368233
0.204195
0.0340287
2.17157
2.34219
0.875361
0.996388
0.856479
0.695101
0.531763
0.368239
0.204344
0.0354284
2.15883
2.30123
0.942231
0.996198
0.856275
0.695048
0.531743
0.368244
0.204475
0.0365062
2.14163
2.25836
1.00753
0.998508
0.856299
0.695014
0.531725
0.368247
0.20458
0.0372902
2.12323
2.2172
1.06764
1.00256
0.856535
0.695001
0.531709
0.368246
0.204652
0.0378013
2.106
2.17952
1.12133
1.00774
0.856945
0.695006
0.531693
0.368243
0.204688
0.0380531
2.09104
2.146
1.16832
1.01352
0.857487
0.695026
0.531679
0.368235
0.204685
0.0380526
2.07922
2.11677
1.20876
1.0195
0.85811
0.695056
0.531665
0.368224
0.204644
0.0377997
2.07126
2.09169
1.24301
1.02533
0.858766
0.69509
0.531651
0.368209
0.204567
0.0372875
2.06747
2.07056
1.27152
1.03076
0.859408
0.695124
0.531638
0.368192
0.204457
0.0365025
2.06752
2.05317
1.29476
1.03559
0.859992
0.695151
0.531623
0.368172
0.204321
0.0354238
2.07105
2.03936
1.31315
1.03964
0.860481
0.695166
0.531608
0.368152
0.204167
0.0340231
2.07743
2.02903
1.32706
1.04281
0.860844
0.695166
0.531592
0.368133
0.204007
0.0322645
2.0848
2.02205
1.33681
1.045
0.861054
0.695147
0.531574
0.368116
0.203857
0.0301047
2.09045
2.01836
1.34264
1.04616
0.861097
0.695107
0.531555
0.368102
0.203736
0.0274967
2.09373
2.01766
1.34459
1.04626
0.860967
0.695047
0.531536
0.368092
0.203671
0.0244727

VECTORS velocity float
0 0 0
0 0 0
0.865681 -0.0342754 0.000810333
0.719338 -0.00426466 0.000201395
0.769296 -0.000847436 3.11172e-05
0.779411 -0.000182714 6.24863e-06
0.781617 -4.16257e-05 1.2907e-06
0.782132 -1.01649e-05 -7.21134e-07
0.782409 -1.00839e-05 -1.41522e-05
0.787723 -0.000363419 -0.000301659
0 0 0
0 0 0
-0.190429 -0.102572 0.000836384
0.724745 -0.0138518 0.000166525
0.785751 -0.00257261 3.25599e-05
0.796213 -0.000553497 6.64268e-06
0.798483 -0.00012614 1.3784e-06
0.799013 -3.07672e-05 -7.21725e-07
0.799282 -2.89413e-05 -1.47036e-05
0.8006 -0.00067926 -0.000326598
0 0 0
0 0 0
0.878735 -0.172693 0.00176045
0.741879 -0.022956 0.000130582
0.786993 -0.00425993 2.93811e-05
0.796689 -0.00091943 6.31594e-06
0.798837 -0.000209807 1.32726e-06
0.79934 -5.10453e-05 -7.45314e-07
0.799575 -4.34136e-05 -1.50472e-05
0.800838 -0.000578102 -0.0003333
0 0 0
0 0 0
-0.17511 -0.244275 0.000784881
0.741564 -0.0307303 8.82429e-05
0.788192 -0.00579728 2.66882e-05
0.79693 -0.00125961 5.7716e-06
0.798893 -0.00028809 1.22181e-06
0.799356 -6.98364e-05 -7.80684e-07
0.799557 -5.22502e-05 -1.5282e-05
0.80087 -0.000476523 -0.000336956
0.475121 -0.0204655 -0.0437401
0.97516 0.000234518 -0.01586
0.894508 -0.267913 0.00778191
0.760511 -0.0372205 0.00032735
0.789843 -0.00713736 2.60978e-05
0.797234 -0.00156427 5.08486e-06
0.798959 -0.000358857 1.07617e-06
0.799369 -8.66185e-05 -8.23693e-07
0.799539 -5.64602e-05 -1.54395e-05
0.800894 -0.000385641 -0.000339056
0.532389 -0.0549367 -0.0494098
1.00875 -0.00223658 -0.0124392
0.929751 -0.242372 0.00625282
0.774245 -0.0411923 0.00039968
0.791708 -0.00823367 2.39556e-05
0.797595 -0.00182539 4.25718e-06
0.799039 -0.000420304 8.969e-07
0.799386 -0.000100976 -8.72833e-07
0.799527 -5.69362e-05 -1.55503e-05
0.800914 -0.000304122 -0.000340303
0.575825 -0.0758371 -0.0562877
1.00197 -0.00745212 -0.0101319
0.929087 -0.215557 0.00349584
0.785379 -0.0432974 0.00027522
0.793703 -0.00906602 1.87592e-05
0.798 -0.00203658 3.3168e-06
0.799129 -0.000470901 6.92415e-07
0.799405 -0.000112578 -9.26332e-07
0.799519 -5.44027e-05 -1.56295e-05
0.80093 -0.000230184 -0.000341056
0.612941 -0.0831252 -0.0633542
0.996156 -0.0117505 -0.00892515
0.927475 -0.190314 0.00198542
0.794992 -0.043888 0.00017739
0.795754 -0.0096263 1.31698e-05
0.798438 -0.00219322 2.32048e-06
0.799228 -0.000509431 4.70468e-07
0.799426 -0.000121176 -9.82653e-07
0.799515 -4.94635e-05 -1.56863e-05
0.800942 -0.000162025 -0.000341509
0.643202 -0.0783814 -0.06978
0.991522 -0.0144487 -0.00833902
0.926005 -0.167085 0.0010554
0.80337 -0.0432681 0.000105985
0.797799 -0.00991739 7.68549e-06
0.798895 -0.00229242 1.30678e-06
0.799332 -0.000535011 2.38247e-07
0.79945 -0.000126606 -1.04032e-06
0.799515 -4.26384e-05 -1.57263e-05
0.800951 -9.78894e-05 -0.000341767
0.666205 -0.0637815 -0.0750159
0.987502 -0.0154035 -0.00807841
0.924675 -0.145846 0.000463799
0.810634 -0.0416785 5.38042e-05
0.799785 -0.00994996 2.64173e-06
0.79936 -0.00233298 3.07988e-07
0.79944 -0.000547106 2.405e-09
0.799475 -0.000128791 -1.09788e-06
0.799518 -3.43967e-05 -1.57523e-05