# vtk DataFile Version 2.0
TestTestTest
ASCII

DATASET STRUCTURED_GRID
DIMENSIONS 11 21 11
POINTS 2541 float
0 0 0
0.5 0 0
1 0 0
1.5 0 0
2 0 0
2.5 0 0
3 0 0
3.5 0 0
4 0 0
4.5 0 0
5 0 0
0 0.05 0
0.5 0.05 0
1 0.05 0
1.5 0.05 0
2 0.05 0
2.5 0.05 0
3 0.05 0
3.5 0.05 0
4 0.05 0
4.5 0.05 0
5 0.05 0
0 0.1 0
0.5 0.1 0
1 0.1 0
1.5 0.1 0
2 0.1 0
2.5 0.1 0
3 0.1 0
3.5 0.1 0
4 0.1 0
4.5 0.1 0
5 0.1 0
0 0.15 0
0.5 0.15 0
1 0.15 0
1.5 0.15 0
2 0.15 0
2.5 0.15 0
3 0.15 0
3.5 0.15 0
4 0.15 0
4.5 0.15 0
5 0.15 0
0 0.2 0
0.5 0.2 0
1 0.2 0
1.5 0.2 0
2 0.2 0
2.5 0.2 0
3 0.2 0
3.5 0.2 0
4 0.2 0
4.5 0.2 0
5 0.2 0
0 0.25 0
0.5 0.25 0
1 0.25 0
1.5 0.25 0
2 0.25 0
2.5 0.25 0
3 0.25 0
3.5 0.25 0
4 0.25 0
4.5 0.25 0
5 0.25 0
0 0.3 0
0.5 0.3 0
1 0.3 0
1.5 0.3 0
2 0.3 0
2.5 0.3 0
3 0.3 0
3.5 0.3 0
4 0.3 0
4.5 0.3 0
5 0.3 0
0 0.35 0
0.5 0.35 0
1 0.35 0
1.5 0.35 0
2 0.35 0
2.5 0.35 0
3 0.35 0
3.5 0.35 0
4 0.35 0
4.5 0.35 0
5 0.35 0
0 0.4 0
0.5 0.4 0
1 0.4 0
1.5 0.4 0
2 0.4 0
2.5 0.4 0
3 0.4 0
3.5 0.4 0
4 0.4 0
4.5 0.4 0
5 0.4 0
0 0.45 0
0.5 0.45 0
1 0.45 0
1.5 0.45 0
2 0.45 0
2.5 0.45 0
3 0.45 0
3.5 0.45 0
4 0.45 0
4.5 0.45 0
5 0.45 0
0 0.5 0
0.5 0.5 0
1 0.5 0
1.5 0.5 0
2 0.5 0
2.5 0.5 0
3 0.5 0
3.5 0.5 0
4 0.5 0
4.5 0.5 0
5 0.5 0
0 0.55 0
0.5 0.55 0
1 0.55 0
1.5 0.55 0
2 0.55 0
2.5 0.55 0
3 0.55 0
3.5 0.55 0
4 0.55 0
4.5 0.55 0
5 0.55 0
0 0.6 0
0.5 0.6 0
1 0.6 0
1.5 0.6 0
2 0.6 0
2.5 0.6 0
3 0.6 0
3.5 0.6 0
4 0.6 0
4.5 0.6 0
5 0.6 0
0 0.65 0
0.5 0.65 0
1 0.65 0
1.5 0.65 0
2 0.65 0
2.5 0.65 0
3 0.65 0
3.5 0.65 0
4 0.65 0
4.5 0.65 0
5 0.65 0
0 0.7 0
0.5 0.7 0
1 0.7 0
1.5 0.7 0
2 0.7 0
2.5 0.7 0
3 0.7 0
3.5 0.7 0
4 0.7 0
4.5 0.7 0
5 0.7 0
0 0.75 0
0.5 0.75 0
1 0.75 0
1.5 0.75 0
2 0.75 0
2.5 0.75 0
3 0.75 0
3.5 0.75 0
4 0.75 0
4.5 0.75 0
5 0.75 0
0 0.8 0
0.5 0.8 0
1 0.8 0
1.5 0.8 0
2 0.8 0
2.5 0.8 0
3 0.8 0
3.5 0.8 0
4 0.8 0
4.5 0.8 0
5 0.8 0
0 0.85 0
0.5 0.85 0
1 0.85 0
1.5 0.85 0
2 0.85 0
2.5 0.85 0
3 0.85 0
3.5 0.85 0
4 0.85 0
4.5 0.85 0
5 0.85 0
0 0.9 0
0.5 0.9 0
1 0.9 0
1.5 0.9 0
2 0.9 0
2.5 0.9 0
3 0.9 0
3.5 0.9 0
4 0.9 0
4.5 0.9 0
5 0.9 0
0 0.95 0
0.5 0.95 0
1 0.95 0
1.5 0.95 0
2 0.95 0
2.5 0.95 0
3 0.95 0
3.5 0.95 0
4 0.95 0
4.5 0.95 0
5 0.95 0
0 1 0
0.5 1 0
1 1 0
1.5 1 0
2 1 0
2.5 1 0
3 1 0
3.5 1 0
4 1 0
4.5 1 0
5 1 0
0 0 0.1
0.5 0 0.1
1 0 0.1
1.5 0 0.1
2 0 0.1
2.5 0 0.1
3 0 0.1
3.5 0 0.1
4 0 0.1
4.5 0 0.1
5 0 0.1
0 0.05 0.1
0.5 0.05 0.1
1 0.05 0.1
1.5 0.05 0.1
2 0.05 0.1
2.5 0.05 0.1
3 0.05 0.1
3.5 0.05 0.1
4 0.05 0.1
4.5 0.05 0.1
5 0.05 0.1
0 0.1 0.1
0.5 0.1 0.1
1 0.1 0.1
1.5 0.1 0.1
2 0.1 0.1
2.5 0.1 0.1
3 0.1 0.1
3.5 0.1 0.1
4 0.1 0.1
4.5 0.1 0.1
5 0.1 0.1
0 0.15 0.1
0.5 0.15 0.1
1 0.15 0.1
1.5 0.15 0.1
2 0.15 0.1
2.5 0.15 0.1
3 0.15 0.1
3.5 0.15 0.1
4 0.15 0.1
4.5 0.15 0.1
5 0.15 0.1
0 0.2 0.1
0.5 0.2 0.1
1 0.2 0.1
1.5 0.2 0.1
2 0.2 0.1
2.5 0.2 0.1
3 0.2 0.1
3.5 0.2 0.1
4 0.2 0.1
4.5 0.2 0.1
5 0.2 0.1
0 0.25 0.1
0.5 0.25 0.1
1 0.25 0.1
1.5 0.25 0.1
2 0.25 0.1
2.5 0.25 0.1
3 0.25 0.1
3.5 0.25 0.1
4 0.25 0.1
4.5 0.25 0.1
5 0.25 0.1
0 0.3 0.1
0.5 0.3 0.1
1 0.3 0.1
1.5 0.3 0.1
2 0.3 0.1
2.5 0.3 0.1
3 0.3 0.1
3.5 0.3 0.1
4 0.3 0.1
4.5 0.3 0.1
5 0.3 0.1
0 0.35 0.1
0.5 0.35 0.1
1 0.35 0.1
1.5 0.35 0.1
2 0.35 0.1
2.5 0.35 0.1
3 0.35 0.1
3.5 0.35 0.1
4 0.35 0.1
4.5 0.35 0.1
5 0.35 0.1
0 0.4 0.1
0.5 0.4 0.1
1 0.4 0.1
1.5 0.4 0.1
2 0.4 0.1
2.5 0.4 0.1
3 0.4 0.1
3.5 0.4 0.1
4 0.4 0.1
4.5 0.4 0.1
5 0.4 0.1
0 0.45 0.1
0.5 0.45 0.1
1 0.45 0.1
1.5 0.45 0.1
2 0.45 0.1
2.5 0.45 0.1
3 0.45 0.1
3.5 0.45 0.1
4 0.45 0.1
4.5 0.45 0.1
5 0.45 0.1
0 0.5 0.1
0.5 0.5 0.1
1 0.5 0.1
1.5 0.5 0.1
2 0.5 0.1
2.5 0.5 0.1
3 0.5 0.1
3.5 0.5 0.1
4 0.5 0.1
4.5 0.5 0.1
5 0.5 0.1
0 0.55 0.1
0.5 0.55 0.1
1 0.55 0.1
1.5 0.55 0.1
2 0.55 0.1
2.5 0.55 0.1
3 0.55 0.1
3.5 0.55 0.1
4 0.55 0.1
4.5 0.55 0.1
5 0.55 0.1
0 0.6 0.1
0.5 0.6 0.1
1 0.6 0.1
1.5 0.6 0.1
2 0.6 0.1
2.5 0.6 0.1
3 0.6 0.1
3.5 0.6 0.1
4 0.6 0.1
4.5 0.6 0.1
5 0.6 0.1
0 0.65 0.1
0.5 0.65 0.1
1 0.65 0.1
1.5 0.65 0.1
2 0.65 0.1
2.5 0.65 0.1
3 0.65 0.1
3.5 0.65 0.1
4 0.65 0.1
4.5 0.65 0.1
5 0.65 0.1
0 0.7 0.1
0.5 0.7 0.1
1 0.7 0.1
1.5 0.7 0.1
2 0.7 0.1
2.5 0.7 0.1
3 0.7 0.1
3.5 0.7 0.1
4 0.7 0.1
4.5 0.7 0.1
5 0.7 0.1
0 0.75 0.1
0.5 0.75 0.1
1 0.75 0.1
1.5 0.75 0.1
2 0.75 0.1
2.5 0.75 0.1
3 0.75 0.1
3.5 0.75 0.1
4 0.75 0.1
4.5 0.75 0.1
5 0.75 0.1
0 0.8 0.1
0.5 0.8 0.1
1 0.8 0.1
1.5 0.8 0.1
2 0.8 0.1
2.5 0.8 0.1
3 0.8 0.1
3.5 0.8 0.1
4 0.8 0.1
4.5 0.8 0.1
5 0.8 0.1
0 0.85 0.1
0.5 0.85 0.1
1 0.85 0.1
1.5 0.85 0.1
2 0.85 0.1
2.5 0.85 0.1
3 0.85 0.1
3.5 0.85 0.1
4 0.85 0.1
4.5 0.85 0.1
5 0.85 0.1
0 0.9 0.1
0.5 0.9 0.1
1 0.9 0.1
1.5 0.9 0.1
2 0.9 0.1
2.5 0.9 0.1
3 0.9 0.1
3.5 0.9 0.1
4 0.9 0.1
4.5 0.9 0.1
5 0.9 0.1
0 0.95 0.1
0.5 0.95 0.1
1 0.95 0.1
1.5 0.95 0.1
2 0.95 0.1
2.5 0.95 0.1
3 0.95 0.1
3.5 0.95 0.1
4 0.95 0.1
4.5 0.95 0.1
5 0.95 0.1
0 1 0.1
0.5 1 0.1
1 1 0.1
1.5 1 0.1
2 1 0.1
2.5 1 0.1
3 1 0.1
3.5 1 0.1
4 1 0.1
4.5 1 0.1
5 1 0.1
0 0 0.2
0.5 0 0.2
1 0 0.2
1.5 0 0.2
2 0 0.2
2.5 0 0.2
3 0 0.2
3.5 0 0.2
4 0 0.2
4.5 0 0.2
5 0 0.2
0 0.05 0.2
0.5 0.05 0.2
1 0.05 0.2
1.5 0.05 0.2
2 0.05 0.2
2.5 0.05 0.2
3 0.05 0.2
3.5 0.05 0.2
4 0.05 0.2
4.5 0.05 0.2
5 0.05 0.2
0 0.1 0.2
0.5 0.1 0.2
1 0.1 0.2
1.5 0.1 0.2
2 0.1 0.2
2.5 0.1 0.2
3 0.1 0.2
3.5 0.1 0.2
4 0.1 0.2
4.5 0.1 0.2
5 0.1 0.2
0 0.15 0.2
0.5 0.15 0.2
1 0.15 0.2
1.5 0.15 0.2
2 0.15 0.2
2.5 0.15 0.2
3 0.15 0.2
3.5 0.15 0.2
4 0.15 0.2
4.5 0.15 0.2
5 0.15 0.2
0 0.2 0.2
0.5 0.2 0.2
1 0.2 0.2
1.5 0.2 0.2
2 0.2 0.2
2.5 0.2 0.2
3 0.2 0.2
3.5 0.2 0.2
4 0.2 0.2
4.5 0.2 0.2
5 0.2 0.2
0 0.25 0.2
0.5 0.25 0.2
1 0.25 0.2
1.5 0.25 0.2
2 0.25 0.2
2.5 0.25 0.2
3 0.25 0.2
3.5 0.25 0.2
4 0.25 0.2
4.5 0.25 0.2
5 0.25 0.2
0 0.3 0.2
0.5 0.3 0.2
1 0.3 0.2
1.5 0.3 0.2
2 0.3 0.2
2.5 0.3 0.2
3 0.3 0.2
3.5 0.3 0.2
4 0.3 0.2
4.5 0.3 0.2
5 0.3 0.2
0 0.35 0.2
0.5 0.35 0.2
1 0.35 0.2
1.5 0.35 0.2
2 0.35 0.2
2.5 0.35 0.2
3 0.35 0.2
3.5 0.35 0.2
4 0.35 0.2
4.5 0.35 0.2
5 0.35 0.2
0 0.4 0.2
0.5 0.4 0.2
1 0.4 0.2
1.5 0.4 0.2
2 0.4 0.2
2.5 0.4 0.2
3 0.4 0.2
3.5 0.4 0.2
4 0.4 0.2
4.5 0.4 0.2
5 0.4 0.2
0 0.45 0.2
0.5 0.45 0.2
1 0.45 0.2
1.5 0.45 0.2
2 0.45 0.2
2.5 0.45 0.2
3 0.45 0.2
3.5 0.45 0.2
4 0.45 0.2
4.5 0.45 0.2
5 0.45 0.2
0 0.5 0.2
0.5 0.5 0.2
1 0.5 0.2
1.5 0.5 0.2
2 0.5 0.2
2.5 0.5 0.2
3 0.5 0.2
3.5 0.5 0.2
4 0.5 0.2
4.5 0.5 0.2
5 0.5 0.2
0 0.55 0.2
0.5 0.55 0.2
1 0.55 0.2
1.5 0.55 0.2
2 0.55 0.2
2.5 0.55 0.2
3 0.55 0.2
3.5 0.55 0.2
4 0.55 0.2
4.5 0.55 0.2
5 0.55 0.2
0 0.6 0.2
0.5 0.6 0.2
1 0.6 0.2
1.5 0.6 0.2
2 0.6 0.2
2.5 0.6 0.2
3 0.6 0.2
3.5 0.6 0.2
4 0.6 0.2
4.5 0.6 0.2
5 0.6 0.2
0 0.65 0.2
0.5 0.65 0.2
1 0.65 0.2
1.5 0.65 0.2
2 0.65 0.2
2.5 0.65 0.2
3 0.65 0.2
3.5 0.65 0.2
4 0.65 0.2
4.5 0.65 0.2
5 0.65 0.2
0 0.7 0.2
0.5 0.7 0.2
1 0.7 0.2
1.5 0.7 0.2
2 0.7 0.2
2.5 0.7 0.2
3 0.7 0.2
3.5 0.7 0.2
4 0.7 0.2
4.5 0.7 0.2
5 0.7 0.2
0 0.75 0.2
0.5 0.75 0.2
1 0.75 0.2
1.5 0.75 0.2
2 0.75 0.2
2.5 0.75 0.2
3 0.75 0.2
3.5 0.75 0.2
4 0.75 0.2
4.5 0.75 0.2
5 0.75 0.2
0 0.8 0.2
0.5 0.8 0.2
1 0.8 0.2
1.5 0.8 0.2
2 0.8 0.2
2.5 0.8 0.2
3 0.8 0.2
3.5 0.8 0.2
4 0.8 0.2
4.5 0.8 0.2
5 0.8 0.2
0 0.85 0.2
0.5 0.85 0.2
1 0.85 0.2
1.5 0.85 0.2
2 0.85 0.2
2.5 0.85 0.2
3 0.85 0.2
3.5 0.85 0.2
4 0.85 0.2
4.5 0.85 0.2
5 0.85 0.2
0 0.9 0.2
0.5 0.9 0.2
1 0.9 0.2
1.5 0.9 0.2
2 0.9 0.2
2.5 0.9 0.2
3 0.9 0.2
3.5 0.9 0.2
4 0.9 0.2
4.5 0.9 0.2
5 0.9 0.2
0 0.95 0.2
0.5 0.95 0.2
1 0.95 0.2
1.5 0.95 0.2
2 0.95 0.2
2.5 0.95 0.2
3 0.95 0.2
3.5 0.95 0.2
4 0.95 0.2
4.5 0.95 0.2
5 0.95 0.2
0 1 0.2
0.5 1 0.2
1 1 0.2
1.5 1 0.2
2 1 0.2
2.5 1 0.2
3 1 0.2
3.5 1 0.2
4 1 0.2
4.5 1 0.2
5 1 0.2
0 0 0.3
0.5 0 0.3
1 0 0.3
1.5 0 0.3
2 0 0.3
2.5 0 0.3
3 0 0.3
3.5 0 0.3
4 0 0.3
4.5 0 0.3
5 0 0.3
0 0.05 0.3
0.5 0.05 0.3
1 0.05 0.3
1.5 0.05 0.3
2 0.05 0.3
2.5 0.05 0.3
3 0.05 0.3
3.5 0.05 0.3
4 0.05 0.3
4.5 0.05 0.3
5 0.05 0.3
0 0.1 0.3
0.5 0.1 0.3
1 0.1 0.3
1.5 0.1 0.3
2 0.1 0.3
2.5 0.1 0.3
3 0.1 0.3
3.5 0.1 0.3
4 0.1 0.3
4.5 0.1 0.3
5 0.1 0.3
0 0.15 0.3
0.5 0.15 0.3
1 0.15 0.3
1.5 0.15 0.3
2 0.15 0.3
2.5 0.15 0.3
3 0.15 0.3
3.5 0.15 0.3
4 0.15 0.3
4.5 0.15 0.3
5 0.15 0.3
0 0.2 0.3
0.5 0.2 0.3
1 0.2 0.3
1.5 0.2 0.3
2 0.2 0.3
2.5 0.2 0.3
3 0.2 0.3
3.5 0.2 0.3
4 0.2 0.3
4.5 0.2 0.3
5 0.2 0.3
0 0.25 0.3
0.5 0.25 0.3
1 0.25 0.3
1.5 0.25 0.3
2 0.25 0.3
2.5 0.25 0.3
3 0.25 0.3
3.5 0.25 0.3
4 0.25 0.3
4.5 0.25 0.3
5 0.25 0.3
0 0.3 0.3
0.5 0.3 0.3
1 0.3 0.3
1.5 0.3 0.3
2 0.3 0.3
2.5 0.3 0.3
3 0.3 0.3
3.5 0.3 0.3
4 0.3 0.3
4.5 0.3 0.3
5 0.3 0.3
0 0.35 0.3
0.5 0.35 0.3
1 0.35 0.3
1.5 0.35 0.3
2 0.35 0.3
2.5 0.35 0.3
3 0.35 0.3
3.5 0.35 0.3
4 0.35 0.3
4.5 0.35 0.3
5 0.35 0.3
0 0.4 0.3
0.5 0.4 0.3
1 0.4 0.3
1.5 0.4 0.3
2 0.4 0.3
2.5 0.4 0.3
3 0.4 0.3
3.5 0.4 0.3
4 0.4 0.3
4.5 0.4 0.3
5 0.4 0.3
0 0.45 0.3
0.5 0.45 0.3
1 0.45 0.3
1.5 0.45 0.3
2 0.45 0.3
2.5 0.45 0.3
3 0.45 0.3
3.5 0.45 0.3
4 0.45 0.3
4.5 0.45 0.3
5 0.45 0.3
0 0.5 0.3
0.5 0.5 0.3
1 0.5 0.3
1.5 0.5 0.3
2 0.5 0.3
2.5 0.5 0.3
3 0.5 0.3
3.5 0.5 0.3
4 0.5 0.3
4.5 0.5 0.3
5 0.5 0.3
0 0.55 0.3
0.5 0.55 0.3
1 0.55 0.3
1.5 0.55 0.3
2 0.55 0.3
2.5 0.55 0.3
3 0.55 0.3
3.5 0.55 0.3
4 0.55 0.3
4.5 0.55 0.3
5 0.55 0.3
0 0.6 0.3
0.5 0.6 0.3
1 0.6 0.3
1.5 0.6 0.3
2 0.6 0.3
2.5 0.6 0.3
3 0.6 0.3
3.5 0.6 0.3
4 0.6 0.3
4.5 0.6 0.3
5 0.6 0.3
0 0.65 0.3
0.5 0.65 0.3
1 0.65 0.3
1.5 0.65 0.3
2 0.65 0.3
2.5 0.65 0.3
3 0.65 0.3
3.5 0.65 0.3
4 0.65 0.3
4.5 0.65 0.3
5 0.65 0.3
0 0.7 0.3
0.5 0.7 0.3
1 0.7 0.3
1.5 0.7 0.3
2 0.7 0.3
2.5 0.7 0.3
3 0.7 0.3
3.5 0.7 0.3
4 0.7 0.3
4.5 0.7 0.3
5 0.7 0.3
0 0.75 0.3
0.5 0.75 0.3
1 0.75 0.3
1.5 0.75 0.3
2 0.75 0.3
2.5 0.75 0.3
3 0.75 0.3
3.5 0.75 0.3
4 0.75 0.3
4.5 0.75 0.3
5 0.75 0.3
0 0.8 0.3
0.5 0.8 0.3
1 0.8 0.3
1.5 0.8 0.3
2 0.8 0.3
2.5 0.8 0.3
3 0.8 0.3
3.5 0.8 0.3
4 0.8 0.3
4.5 0.8 0.3
5 0.8 0.3
0 0.85 0.3
0.5 0.85 0.3
1 0.85 0.3
1.5 0.85 0.3
2 0.85 0.3
2.5 0.85 0.3
3 0.85 0.3
3.5 0.85 0.3
4 0.85 0.3
4.5 0.85 0.3
5 0.85 0.3
0 0.9 0.3
0.5 0.9 0.3
1 0.9 0.3
1.5 0.9 0.3
2 0.9 0.3
2.5 0.9 0.3
3 0.9 0.3
3.5 0.9 0.3
4 0.9 0.3
4.5 0.9 0.3
5 0.9 0.3
0 0.95 0.3
0.5 0.95 0.3
1 0.95 0.3
1.5 0.95 0.3
2 0.95 0.3
2.5 0.95 0.3
3 0.95 0.3
3.5 0.95 0.3
4 0.95 0.3
4.5 0.95 0.3
5 0.95 0.3
0 1 0.3
0.5 1 0.3
1 1 0.3
1.5 1 0.3
2 1 0.3
2.5 1 0.3
3 1 0.3
3.5 1 0.3
4 1 0.3
4.5 1 0.3
5 1 0.3
0 0 0.4
[...]
CELL_DATA 2000
SCALARS pressure float 1
LOOKUP_TABLE default
0
0
0.906172
1.00844
0.827867
0.666266
0.508734
0.352248
0.195236
0.0242828
0
0
0.904745
1.00066
0.827211
0.666135
0.508703
0.352243
0.195267
0.0268962
0
0
0.866834
0.99608
0.826287
0.665954
0.508661
0.352238
0.195356
0.0292872
0
0
0.85599
0.985754
0.825197
0.665735
0.508608
0.352234
0.195479
0.0312785
1.62203
1.75958
0.865877
0.976487
0.82398
0.665487
0.508547
0.352229
0.195613
0.0328966
1.61788
1.74914
0.896197
0.969524
0.822748
0.665218
0.508479
0.352222
0.195743
0.0341833
1.60937
1.73352
0.932718
0.964999
0.821581
0.664938
0.508406
0.352212
0.195858
0.0351728
1.59731
1.71586
0.971816
0.962484
0.820531
0.664655
0.508328
0.3522
0.195949
0.0358918
1.58458
1.6982
1.00848
0.961505
0.819621
0.664374
0.508248
0.352184
0.19601
0.0363601
1.57323
1.68163
1.0415
0.961624
0.818851
0.664101
0.508167
0.352164
0.196039
0.0365905
1.56403
1.66668
1.07053
0.962483
0.818208
0.663839
0.508087
0.352141
0.196033
0.0365893
1.55748
1.65351
1.09557
0.96379
0.817673
0.663592
0.508007
0.352115
0.195992
0.0363566
1.55408
1.64218
1.11677
0.965307
0.817227
0.66336
0.507931
0.352087
0.195918
0.0358861
1.55395
1.63263
1.13438
0.966843
0.816847
0.663145
0.507858
0.352056
0.195816
0.0351649
1.55687
1.62481
1.14865
0.968244
0.816513
0.662947
0.507791
0.352026
0.195691
0.0341734
1.56261
1.61868
1.15982
0.969392
0.816205
0.662766
0.507729
0.351997
0.195551
0.0328849
1.57062
1.61421
1.16813
0.970193
0.815907
0.662602
0.507674
0.35197
0.195408
0.0312652
1.57906
1.61135
1.17378
0.970583
0.815608
0.662457
0.507626
0.351948
0.195278
0.0292724
1.5852
1.61015
1.17697
0.970542
0.815307
0.662333
0.507588
0.351931
0.195183
0.0268803
1.5882
1.61034
1.17767
0.970096
0.815027
0.662237
0.50756
0.351921
0.19515
0.0242661
0
0
0.914995
1.00453
0.827624
0.6662
0.508719
0.352259
0.195439
0.0288374
0
0
0.911957
0.997828
0.826774
0.66604
0.508683
0.352253
0.195476
0.0323689
0
0
0.875226
0.993585
0.825883
0.665857
0.50864
0.352249
0.195593
0.0348933
0
0
0.887828
0.985951
0.824792
0.665643
0.508588
0.352245
0.19573
0.0369289
1.6055
1.77586
0.824489
0.975335
0.823602
0.665404
0.508529
0.352241
0.195873
0.0385761
1.60061
1.78346
0.85138
0.966226
0.822402
0.665148
0.508464
0.352236
0.196008
0.0398819
1.59262
1.75754
0.903322
0.962083
0.821297
0.664882
0.508394
0.352227
0.196126
0.0408839
1.58238
1.73173
0.952015
0.96053
0.820325
0.664614
0.50832
0.352216
0.196219
0.0416109
1.57067
1.70905
0.995909
0.960284
0.819495
0.664349
0.508244
0.352201
0.196282
0.042084
1.55901
1.68937
1.03375
0.960936
0.818798
0.664093
0.508167
0.352183
0.196311
0.0423166
1.54957
1.67227
1.06595
0.962182
0.81822
0.663847
0.50809
0.352161
0.196305
0.0423155
1.54298
1.65759
1.09307
0.963769
0.817742
0.663614
0.508015
0.352135
0.196264
0.0420807
1.53944
1.64512
1.11567
0.965489
0.817344
0.663396
0.507942
0.352107
0.196189
0.0416055
1.53907
1.63468
1.13418
0.967171
0.817004
0.663193
0.507872
0.352078
0.196086
0.0408764
1.54198
1.62607
1.14899
0.968677
0.816703
0.663006
0.507807
0.352048
0.195957
0.0398724
1.54783
1.61904
1.16045
0.969898
0.816422
0.662834
0.507748
0.352018
0.195813
0.0385649
1.55471
1.61349
1.16885
0.970752
0.816145
0.662677
0.507695
0.351991
0.195662
0.0369161
1.56136
1.6096
1.17444
0.971179
0.815863
0.662537
0.507648
0.351969
0.195518
0.0348792
1.56714
1.60767
1.17743
0.97112
0.815561
0.662411
0.507609
0.351951
0.195395
0.0323537
1.57149
1.60847
1.17789
0.970502
0.815214
0.662296
0.507577
0.35194
0.195354
0.0288212
0
0
0.924967
1.00346
0.827525
0.66615
0.508706
0.352281
0.195744
0.0321934
0
0
0.920815
0.997731
0.826672
0.665986
0.508669
0.352275
0.19579
0.0358683
0
0
0.890919
0.99462
0.825823
0.665804
0.508626
0.352272
0.195917
0.038478
0
0
0.905029
0.988636
0.824803
0.665596
0.508576
0.35227
0.196064
0.0405702
1.58914
1.77549
0.810649
0.978301
0.823655
0.665364
0.508519
0.352267
0.196214
0.0422547
1.5836
1.81093
0.800917
0.966831
0.822432
0.665114
0.508455
0.352262
0.196355
0.0435856
1.57797
1.79584
0.859506
0.959775
0.821253
0.664855
0.508388
0.352255
0.196477
0.0446044
1.57539
1.76205
0.925019
0.957685
0.82023
0.664594
0.508316
0.352245
0.196572
0.0453424
1.57428
1.73086
0.978396
0.957988
0.819394
0.664337
0.508243
0.352231
0.196637
0.045822
1.57284
1.70447
1.02246
0.959225
0.818718
0.664089
0.508169
0.352213
0.196667
0.0460577
1.57025
1.68262
1.05899
0.960959
0.81817
0.663852
0.508095
0.352192
0.196661
0.0460567
1.5666
1.66474
1.08915
0.962938
0.817727
0.663629
0.508022
0.352167
0.196619
0.0458189
1.56291
1.65026
1.11387
0.96497
0.817363
0.66342
0.507951
0.352139
0.196544
0.0453372
1.55921
1.63873
1.13384
0.966898
0.817057
0.663225
0.507884
0.35211
0.196437
0.0445972
1.55479
1.62966
1.14963
0.968597
0.816785
0.663045
0.507821
0.35208
0.196306
0.0435766
1.54992
1.6225
1.16159
0.969973
0.81653
0.66288
0.507763
0.352051
0.196156
0.042244
1.54588
1.61651
1.17003
0.970952
0.816279
0.662728
0.507711
0.352023
0.195998
0.0405579
1.54506
1.61162
1.17541
0.97146
0.816014
0.662591
0.507666
0.352
0.195844
0.0384644
1.54902
1.60877
1.17821
0.971427
0.815716
0.662466
0.507627
0.351981
0.195711
0.0358535
1.55458
1.60924
1.17853
0.97079
0.815361
0.662348
0.507594
0.35197
0.195661
0.0321777
0
0
0.928978
1.0038
0.827528
0.666121
0.508699
0.352304
0.196008
0.034297
0
0
0.924587
0.99839
0.826689
0.665958
0.508662
0.352298
0.196056
0.0380019
0
0
0.894103
0.995847
0.825872
0.665779
0.508619
0.352296
0.196187
0.0406434
0
0
0.903349
0.990596
0.824902
0.665575
0.50857
0.352294
0.196339
0.0427629
1.58098
1.7903
0.804881
0.980628
0.823805
0.665348
0.508513
0.352292
0.196493
0.044469
1.57576
1.83141
0.780363
0.968739
0.822612
0.665105
0.508452
0.352288
0.196638
0.0458163
1.57294
1.82239
0.824533
0.960209
0.821393
0.66485
0.508385
0.352282
0.196762
0.046847
1.57759
1.78729
0.896714
0.956671
0.820281
0.66459
0.508315
0.352272
0.19686
0.0475932
1.58903
1.75017
0.960814
0.956482
0.819366
0.664334
0.508243
0.352259
0.196925
0.0480779
1.60247
1.71729
1.01163
0.957719
0.818648
0.664088
0.508171
0.352242
0.196956
0.0483161
1.61214
1.68892
1.05242
0.959588
0.818082
0.663853
0.508098
0.352221
0.19695
0.0483151
1.61501
1.66585
1.08567
0.961756
0.817636
0.663633
0.508027
0.352196
0.196908
0.0480748
1.61126
1.6489
1.1127
0.964
0.817281
0.663427
0.507958
0.352169
0.196832
0.0475881
1.6008
1.63762
1.13419
0.966167
0.816993
0.663237
0.507892
0.352139
0.196723
0.0468399
1.58363
1.63014
1.15062
0.96813
0.816756
0.663063
0.507831
0.352109
0.196589
0.0458074
1.56326
1.62425
1.16264
0.969751
0.816542
0.662903
0.507774
0.35208
0.196436
0.0444585
1.54638
1.61888
1.17098
0.970906
0.816324
0.662757
0.507723
0.352052
0.196274
0.0427508
1.53848
1.61404
1.17624
0.971516
0.81608
0.662623
0.507678
0.352028
0.196115
0.0406301
1.54
1.61079
1.1789
0.971533
0.815792
0.662499
0.507639
0.352009
0.195978
0.0379874
1.54556
1.61104
1.17915
0.970911
0.81544
0.662381
0.507606
0.351997
0.195926
0.0342816
0
0
0.929386
1.00416
0.827554
0.66611
0.508695
0.352318
0.196156
0.0353023
0
0
0.924423
0.998854
0.826722
0.665947
0.508659
0.352312
0.196204
0.0390147
0
0
0.892503
0.996515
0.825921
0.665769
0.508616
0.35231
0.196337
0.0416667
0
0
0.899812
0.991519
0.824973
0.665567
0.508567
0.352309
0.196491
0.0437965
1.57815
1.80051
0.799748
0.981734
0.823902
0.665344
0.508511
0.352307
0.196647
0.0455119
1.57329
1.84308
0.773403
0.969841
0.82273
0.665104
0.50845
0.352303
0.196793
0.0468666
1.57278
1.83534
0.812927
0.961136
0.821525
0.664852
0.508385
0.352297
0.196919
0.047903
1.58263
1.8
0.881234
0.957199
0.820401
0.664596
0.508316
0.352288
0.197017
0.0486534
1.60151
1.76057
0.947553
0.956395
0.819433
0.664339
0.508244
0.352275
0.197084
0.0491407
1.62381
1.72395
1.00352
0.957099
0.818638
0.664089
0.508172
0.352258
0.197115
0.0493802
1.64218
1.69155
1.04872
0.958665
0.818009
0.663851
0.5081
0.352237
0.197109
0.0493792
1.65006
1.6649
1.08464
0.960773
0.817528
0.663629
0.508029
0.352213
0.197067
0.0491377
1.64622
1.64638
1.11287
0.963168
0.817177
0.663425
0.507961
0.352186
0.19699
0.0486483
1.63054
1.63567
1.13467
0.965588
0.816922
0.663239
0.507896
0.352157
0.19688
0.0478961
1.60442
1.62944
1.15114
0.96778
0.816718
0.663069
0.507835
0.352126
0.196745
0.0468579
1.57493
1.62481
1.16317
0.969563
0.816531
0.662913
0.507779
0.352097
0.19659
0.0455015
1.55047
1.62021
1.17149
0.970823
0.816332
0.662769
0.507728
0.352069
0.196426
0.0437847
1.53743
1.6156
1.1767
0.971499
0.816101
0.662637
0.507684
0.352045
0.196266
0.0416535
1.53682
1.61223
1.17931
0.971551
0.815821
0.662515
0.507645
0.352026
0.196127
0.0390004
1.54218
1.61239
1.17952
0.970943
0.815471
0.662396
0.507612
0.352013
0.196074
0.0352871
0
0
0.929386
1.00416
0.827554
0.66611
0.508695
0.352318
0.196156
0.0353023
0
0
0.924423
0.998854
0.826722
0.665947
0.508659
0.352312
0.196204
0.0390147
0
0
0.892503
0.996515
0.825921
0.665769
0.508616
0.35231
0.196337
0.0416667
0
0
0.899812
0.991519
0.824973
0.665567
0.508567
0.352309
0.196491
0.0437965
1.57815
1.80051
0.799748
0.981734
0.823902
0.665344
0.508511
0.352307
0.196647
0.0455119
1.57329
1.84308
0.773403
0.969841
0.82273
0.665104
0.50845
0.352303
0.196793
0.0468666
1.57278
1.83534
0.812927
0.961136
0.821525
0.664852
0.508385
0.352297
0.196919
0.047903
1.58263
1.8
0.881234
0.957199
0.820401
0.664596
0.508316
0.352288
0.197017
0.0486534
1.60151
1.76057
0.947553
0.956395
0.819433
0.664339
0.508244
0.352275
0.197084
0.0491407
1.62381
1.72395
1.00352
0.957099
0.818638
0.664089
0.508172
0.352258
0.197115
0.0493802
1.64218
1.69155
1.04872
0.958665
0.818009
0.663851
0.5081
0.352237
0.197109
0.0493792
1.65006
1.6649
1.08464
0.960773
0.817528
0.663629
0.508029
0.352213
0.197067
0.0491377
1.64622
1.64638
1.11287
0.963168
0.817177
0.663425
0.507961
0.352186
0.19699
0.0486483
1.63054
1.63567
1.13467
0.965588
0.816922
0.663239
0.507896
0.352157
0.19688
0.0478961
1.60442
1.62944
1.15114
0.96778
0.816718
0.663069
0.507835
0.352126
0.196745
0.0468579
1.57493
1.62481
1.16317
0.969563
0.816531
0.662913
0.507779
0.352097
0.19659
0.0455015
1.55047
1.62021
1.17149
0.970823
0.816332
0.662769
0.507728
0.352069
0.196426
0.0437847
1.53743
1.6156
1.1767
0.971499
0.816101
0.662637
0.507684
0.352045
0.196266
0.0416535
1.53682
1.61223
1.17931
0.971551
0.815821
0.662515
0.507645
0.352026
0.196127
0.0390004
1.54218
1.61239
1.17952
0.970943
0.815471
0.662396
0.507612
0.352013
0.196074
0.0352871
0
0
0.928978
1.0038
0.827528
0.666121
0.508699
0.352304
0.196008
0.034297
0
0
0.924587
0.99839
0.826689
0.665958
0.508662
0.352298
0.196056
0.0380019
0
0
0.894103
0.995847
0.825872
0.665779
0.508619
0.352296
0.196187
0.0406434
0
0
0.903349
0.990596
0.824902
0.665575
0.50857
0.352294
0.196339
0.0427629
1.58098
1.7903
0.804881
0.980628
0.823805
0.665348
0.508513
0.352292
0.196493
0.044469
1.57576
1.83141
0.780363
0.968739
0.822612
0.665105
0.508452
0.352288
0.196638
0.0458163
1.57294
1.82239
0.824533
0.960209
0.821393
0.66485
0.508385
0.352282
0.196762
0.046847
1.57759
1.78729
0.896714
0.956671
0.820281
0.66459
0.508315
0.352272
0.19686
0.0475932
1.58903
1.75017
0.960814
0.956482
0.819366
0.664334
0.508243
0.352259
0.196925
0.0480779
1.60247
1.71729
1.01163
0.957719
0.818648
0.664088
0.508171
0.352242
0.196956
0.0483161
1.61214
1.68892
1.05242
0.959588
0.818082
0.663853
0.508098
0.352221
0.19695
0.0483151
1.61501
1.66585
1.08567
0.961756
0.817636
0.663633
0.508027
0.352196
0.196908
0.0480748
1.61126
1.6489
1.1127
0.964
0.817281
0.663427
0.507958
0.352169
0.196832
0.0475881
1.6008
1.63762
1.13419
0.966167
0.816993
0.663237
0.507892
0.352139
0.196723
0.0468399
1.58363
1.63014
1.15062
0.96813
0.816756
0.663063
0.507831
0.352109
0.196589
0.0458074
1.56326
1.62425
1.16264
0.969751
0.816542
0.662903
0.507774
0.35208
0.196436
0.0444585
1.54638
1.61888
1.17098
0.970906
0.816324
0.662757
0.507723
0.352052
0.196274
0.0427508
1.53848
1.61404
1.17624
0.971516
0.81608
0.662623
0.507678
0.352028
0.196115
0.0406301
1.54
1.61079
1.1789
0.971533
0.815792
0.662499
0.507639
0.352009
0.195978
0.0379874
1.54556
1.61104
1.17915
0.970911
0.81544
0.662381
0.507606
0.351997
0.195926
0.0342816
0
0
0.924967
1.00346
0.827525
0.66615
0.508706
0.352281
0.195744
0.0321934
0
0
0.920815
0.997731
0.826672
0.665986
0.508669
0.352275
0.19579
0.0358683
0
0
0.890919
0.99462
0.825823
0.665804
0.508626
0.352272
0.195917
0.038478
0
0
0.905029
0.988636
0.824803
0.665596
0.508576
0.35227
0.196064
0.0405702
1.58914
1.77549
0.810649
0.978301
0.823655
0.665364
0.508519
0.352267
0.196214
0.0422547
1.5836
1.81093
0.800917
0.966831
0.822432
0.665114
0.508455
0.352262
0.196355
0.0435856
1.57797
1.79584
0.859506
0.959775
0.821253
0.664855
0.508388
0.352255
0.196477
0.0446044
1.57539
1.76205
0.925019
0.957685
0.82023
0.664594
0.508316
0.352245
0.196572
0.0453424
1.57428
1.73086
0.978396
0.957988
0.819394
0.664337
0.508243
0.352231
0.196637
0.045822
1.57284
1.70447
1.02246
0.959225
0.818718
0.664089
0.508169
0.352213
0.196667
0.0460577
1.57025
1.68262
1.05899
0.960959
0.81817
0.663852
0.508095
0.352192
0.196661
0.0460567
1.5666
1.66474
1.08915
0.962938
0.817727
0.663629
0.508022
0.352167
0.196619
0.0458189
1.56291
1.65026
1.11387
0.96497
0.817363
0.66342
0.507951
0.352139
0.196544
0.0453372
1.55921
1.63873
1.13384
0.966898
0.817057
0.663225
0.507884
0.35211
0.196437
0.0445972
1.55479
1.62966
1.14963
0.968597
0.816785
0.663045
0.507821
0.35208
0.196306
0.0435766
1.54992
1.6225
1.16159
0.969973
0.81653
0.66288
0.507763
0.352051
0.196156
0.042244
1.54588
1.61651
1.17003
0.970952
0.816279
0.662728
0.507711
0.352023
0.195998
0.0405579
1.54506
1.61162
1.17541
0.97146
0.816014
0.662591
0.507666
0.352
0.195844
0.0384644
1.54902
1.60877
1.17821
0.971427
0.815716
0.662466
0.507627
0.351981
0.195711
0.0358535
1.55458
1.60924
1.17853
0.97079
0.815361
0.662348
0.507594
0.35197
0.195661
0.0321777
0
0
0.914995
1.00453
0.827624
0.6662
0.508719
0.352259
0.195439
0.0288374
0
0
0.911957
0.997828
0.826774
0.66604
0.508683
0.352253
0.195476
0.0323689
0
0
0.875226
0.993585
0.825883
0.665857
0.50864
0.352249
0.195593
0.0348933
0
0
0.887828
0.985951
0.824792
0.665643
0.508588
0.352245
0.19573
0.0369289
1.6055
1.77586
0.824489
0.975335
0.823602
0.665404
0.508529
0.352241
0.195873
0.0385761
1.60061
1.78346
0.85138
0.966226
0.822402
0.665148
0.508464
0.352236
0.196008
0.0398819
1.59262
1.75754
0.903322
0.962083
0.821297
0.664882
0.508394
0.352227
0.196126
0.0408839
1.58238
1.73173
0.952015
0.96053
0.820325
0.664614
0.50832
0.352216
0.196219
0.0416109
1.57067
1.70905
0.995909
0.960284
0.819495
0.664349
0.508244
0.352201
0.196282
0.042084
1.55901
1.68937
1.03375
0.960936
0.818798
0.664093
0.508167
0.352183
0.196311
0.0423166
1.54957
1.67227
1.06595
0.962182
0.81822
0.663847
0.50809
0.352161
0.196305
0.0423155
1.54298
1.65759
1.09307
0.963769
0.817742
0.663614
0.508015
0.352135
0.196264
0.0420807
1.53944
1.64512
1.11567
0.965489
0.817344
0.663396
0.507942
0.352107
0.196189
0.0416055
1.53907
1.63468
1.13418
0.967171
0.817004
0.663193
0.507872
0.352078
0.196086
0.0408764
1.54198
1.62607
1.14899
0.968677
0.816703
0.663006
0.507807
0.352048
0.195957
0.0398724
1.54783
1.61904
1.16045
0.969898
0.816422
0.662834
0.507748
0.352018
0.195813
0.0385649
1.55471
1.61349
1.16885
0.970752
0.816145
0.662677
0.507695
0.351991
0.195662
0.0369161
1.56136
1.6096
1.17444
0.971179
0.815863
0.662537
0.507648
0.351969
0.195518
0.0348792
1.56714
1.60767
1.17743
0.97112
0.815561
0.662411
0.507609
0.351951
0.195395
0.0323537
1.57149
1.60847
1.17789
0.970502
0.815214
0.662296
0.507577
0.35194
0.195354
0.0288212
0
0
0.906172
1.00844
0.827867
0.666266
0.508734
0.352248
0.195236
0.0242828
0
0
0.904745
1.00066
0.827211
0.666135
0.508703
0.352243
0.195267
0.0268962
0
0
0.866834
0.99608
0.826287
0.665954
0.508661
0.352238
0.195356
0.0292872
0
0
0.85599
0.985754
0.825197
0.665735
0.508608
0.352234
0.195479
0.0312785
1.62203
1.75958
0.865877
0.976487
0.82398
0.665487
0.508547
0.352229
0.195613
0.0328966
1.61788
1.74914
0.896197
0.969524
0.822748
0.665218
0.508479
0.352222
0.195743
0.0341833
1.60937
1.73352
0.932718
0.964999
0.821581
0.664938
0.508406
0.352212
0.195858
0.0351728
1.59731
1.71586
0.971816
0.962484
0.820531
0.664655
0.508328
0.3522
0.195949
0.0358918
1.58458
1.6982
1.00848
0.961505
0.819621
0.664374
0.508248
0.352184
0.19601
0.0363601
1.57323
1.68163
1.0415
0.961624
0.818851
0.664101
0.508167
0.352164
0.196039
0.0365905
1.56403
1.66668
1.07053
0.962483
0.818208
0.663839
0.508087
0.352141
0.196033
0.0365893
1.55748
1.65351
1.09557
0.96379
0.817673
0.663592
0.508007
0.352115
0.195992
0.0363566
1.55408
1.64218
1.11677
0.965307
0.817227
0.66336
0.507931
0.352087
0.195918
0.0358861
1.55395
1.63263
1.13438
0.966843
0.816847
0.663145
0.507858
0.352056
0.195816
0.0351649
1.55687
1.62481
1.14865
0.968244
0.816513
0.662947
0.507791
0.352026
0.195691
0.0341734
1.56261
1.61868
1.15982
0.969392
0.816205
0.662766
0.507729
0.351997
0.195551
0.0328849
1.57062
1.61421
1.16813
0.970193
0.815907
0.662602
0.507674
0.35197
0.195408
0.0312652
1.57906
1.61135
1.17378
0.970583
0.815608
0.662457
0.507626
0.351948
0.195278
0.0292724
1.5852
1.61015
1.17697
0.970542
0.815307
0.662333
0.507588
0.351931
0.195183
0.0268803
1.5882
1.61034
1.17767
0.970096
0.815027
0.662237
0.50756
0.351921
0.19515
0.0242661

VECTORS velocity float
0 0 0
0 0 0
0.796654 -0.0327992 -0.000439962
0.689228 -0.00322866 0.0007194
0.725136 -0.000765048 8.65443e-05
0.733955 -0.000169047 1.76975e-05
0.73592 -3.82067e-05 3.78699e-06
0.736392 -9.91123e-06 -1.86196e-06
0.73683 -1.52496e-05 -3.53967e-05
0.75174 -0.00102131 -0.000873525
0 0 0
0 0 0
-0.146727 -0.0974308 -0.000210297
0.699702 -0.0128169 0.000560694
0.769452 -0.00247773 0.000103688
0.780267 -0.000534654 2.16244e-05
0.782544 -0.000120586 4.61692e-06
0.783085 -3.12355e-05 -1.77834e-06
0.783634 -5.40446e-05 -3.81287e-05
0.788409 -0.00196856 -0.00101788
0 0 0
0 0 0
0.815985 -0.164791 0.00107031
0.73257 -0.0226731 0.000481459
0.773237 -0.00428172 9.10235e-05
0.783133 -0.000920277 2.0771e-05
0.785325 -0.000207546 4.52564e-06
0.785848 -5.34735e-05 -1.88875e-06
0.786318 -9.26356e-05 -4.05698e-05
0.790307 -0.00173729 -0.00104142
0 0 0
0 0 0
-0.13202 -0.234028 0.000686268
0.716929 -0.0311792 0.0001364
0.7741 -0.00595312 7.82009e-05
0.783507 -0.00128358 1.90891e-05
0.785528 -0.000289867 4.19449e-06
0.78601 -7.39813e-05 -2.05304e-06
0.786398 -0.000114693 -4.22304e-05
0.790483 -0.00143417 -0.00105243
0.434268 -0.0183625 -0.0397821
0.87396 0.0058403 -0.0231802
0.823094 -0.262522 0.0111794
0.742276 -0.0393377 0.000850242
0.775941 -0.00745359 8.56416e-05
0.783817 -0.00161133 1.71582e-05
0.785599 -0.000364558 3.7168e-06
0.786026 -9.19217e-05 -2.23698e-06
0.786344 -0.000122542 -4.31649e-05
0.790557 -0.00115791 -0.00105863
0.505605 -0.0493348 -0.0468448
0.98002 0.0105664 -0.0205904
0.921022 -0.246506 0.0130187
0.760418 -0.044321 0.00117083
0.777936 -0.00868421 8.45183e-05
0.78418 -0.00189358 1.4607e-05
0.785677 -0.000429571 3.11289e-06
0.786039 -0.000106814 -2.43878e-06
0.786297 -0.000119464 -4.37619e-05
0.790616 -0.000910221 -0.00106246
0.550506 -0.0678013 -0.0532997
0.981634 0.00710387 -0.0165157
0.928078 -0.223727 0.00796571
0.772411 -0.0469777 0.000854531
0.780001 -0.00962613 6.57627e-05
0.78459 -0.00212311 1.1392e-05
0.785767 -0.000483218 2.41277e-06
0.786055 -0.000118335 -2.64972e-06
0.786262 -0.000108027 -4.4154e-05
0.790661 -0.00068579 -0.00106486
0.588327 -0.0736198 -0.0592948
0.976063 0.002643 -0.014104
0.926285 -0.199844 0.00447641
0.782385 -0.0478232 0.000541223
0.78214 -0.0102687 4.55986e-05
0.785036 -0.00229449 7.97396e-06
0.785866 -0.000524153 1.64986e-06
0.786074 -0.000126295 -2.86373e-06
0.786239 -9.03326e-05 -4.4415e-05
0.790696 -0.000479116 -0.00106634
0.619079 -0.0686614 -0.0645211
0.970893 -0.000867183 -0.0128863
0.924051 -0.176639 0.00244763
0.791124 -0.0472381 0.000319015
0.784292 -0.0106122 2.63185e-05
0.785506 -0.00240417 4.49692e-06
0.785971 -0.000551397 8.50736e-07
0.786096 -0.000130625 -3.07558e-06
0.786226 -6.81518e-05 -4.45866e-05
0.790719 -0.000284878 -0.0010672
0.642575 -0.0550434 -0.0687607
0.966361 -0.0028042 -0.0123137
0.921963 -0.154783 0.00116334
0.798735 -0.0455245 0.00016322
0.786391 -0.0106671 9.21311e-06