# vtk DataFile Version 2.0
TestTestTest
ASCII

DATASET STRUCTURED_GRID
DIMENSIONS 11 21 11
POINTS 2541 float
0 0 0
0.5 0 0
1 0 0
1.5 0 0
2 0 0
2.5 0 0
3 0 0
3.5 0 0
4 0 0
4.5 0 0
5 0 0
0 0.05 0
0.5 0.05 0
1 0.05 0
1.5 0.05 0
2 0.05 0
2.5 0.05 0
3 0.05 0
3.5 0.05 0
4 0.05 0
4.5 0.05 0
5 0.05 0
0 0.1 0
0.5 0.1 0
1 0.1 0
1.5 0.1 0
2 0.1 0
2.5 0.1 0
3 0.1 0
3.5 0.1 0
4 0.1 0
4.5 0.1 0
5 0.1 0
0 0.15 0
0.5 0.15 0
1 0.15 0
1.5 0.15 0
2 0.15 0
2.5 0.15 0
3 0.15 0
3.5 0.15 0
4 0.15 0
4.5 0.15 0
5 0.15 0
0 0.2 0
0.5 0.2 0
1 0.2 0
1.5 0.2 0
2 0.2 0
2.5 0.2 0
3 0.2 0
3.5 0.2 0
4 0.2 0
4.5 0.2 0
5 0.2 0
0 0.25 0
0.5 0.25 0
1 0.25 0
1.5 0.25 0
2 0.25 0
2.5 0.25 0
3 0.25 0
3.5 0.25 0
4 0.25 0
4.5 0.25 0
5 0.25 0
0 0.3 0
0.5 0.3 0
1 0.3 0
1.5 0.3 0
2 0.3 0
2.5 0.3 0
3 0.3 0
3.5 0.3 0
4 0.3 0
4.5 0.3 0
5 0.3 0
0 0.35 0
0.5 0.35 0
1 0.35 0
1.5 0.35 0
2 0.35 0
2.5 0.35 0
3 0.35 0
3.5 0.35 0
4 0.35 0
4.5 0.35 0
5 0.35 0
0 0.4 0
0.5 0.4 0
1 0.4 0
1.5 0.4 0
2 0.4 0
2.5 0.4 0
3 0.4 0
3.5 0.4 0
4 0.4 0
4.5 0.4 0
5 0.4 0
0 0.45 0
0.5 0.45 0
1 0.45 0
1.5 0.45 0
2 0.45 0
2.5 0.45 0
3 0.45 0
3.5 0.45 0
4 0.45 0
4.5 0.45 0
5 0.45 0
0 0.5 0
0.5 0.5 0
1 0.5 0
1.5 0.5 0
2 0.5 0
2.5 0.5 0
3 0.5 0
3.5 0.5 0
4 0.5 0
4.5 0.5 0
5 0.5 0
0 0.55 0
0.5 0.55 0
1 0.55 0
1.5 0.55 0
2 0.55 0
2.5 0.55 0
3 0.55 0
3.5 0.55 0
4 0.55 0
4.5 0.55 0
5 0.55 0
0 0.6 0
0.5 0.6 0
1 0.6 0
1.5 0.6 0
2 0.6 0
2.5 0.6 0
3 0.6 0
3.5 0.6 0
4 0.6 0
4.5 0.6 0
5 0.6 0
0 0.65 0
0.5 0.65 0
1 0.65 0
1.5 0.65 0
2 0.65 0
2.5 0.65 0
3 0.65 0
3.5 0.65 0
4 0.65 0
4.5 0.65 0
5 0.65 0
0 0.7 0
0.5 0.7 0
1 0.7 0
1.5 0.7 0
2 0.7 0
2.5 0.7 0
3 0.7 0
3.5 0.7 0
4 0.7 0
4.5 0.7 0
5 0.7 0
0 0.75 0
0.5 0.75 0
1 0.75 0
1.5 0.75 0
2 0.75 0
2.5 0.75 0
3 0.75 0
3.5 0.75 0
4 0.75 0
4.5 0.75 0
5 0.75 0
0 0.8 0
0.5 0.8 0
1 0.8 0
1.5 0.8 0
2 0.8 0
2.5 0.8 0
3 0.8 0
3.5 0.8 0
4 0.8 0
4.5 0.8 0
5 0.8 0
0 0.85 0
0.5 0.85 0
1 0.85 0
1.5 0.85 0
2 0.85 0
2.5 0.85 0
3 0.85 0
3.5 0.85 0
4 0.85 0
4.5 0.85 0
5 0.85 0
0 0.9 0
0.5 0.9 0
1 0.9 0
1.5 0.9 0
2 0.9 0
2.5 0.9 0
3 0.9 0
3.5 0.9 0
4 0.9 0
4.5 0.9 0
5 0.9 0
0 0.95 0
0.5 0.95 0
1 0.95 0
1.5 0.95 0
2 0.95 0
2.5 0.95 0
3 0.95 0
3.5 0.95 0
4 0.95 0
4.5 0.95 0
5 0.95 0
0 1 0
0.5 1 0
1 1 0
1.5 1 0
2 1 0
2.5 1 0
3 1 0
3.5 1 0
4 1 0
4.5 1 0
5 1 0
0 0 0.1
0.5 0 0.1
1 0 0.1
1.5 0 0.1
2 0 0.1
2.5 0 0.1
3 0 0.1
3.5 0 0.1
4 0 0.1
4.5 0 0.1
5 0 0.1
0 0.05 0.1
0.5 0.05 0.1
1 0.05 0.1
1.5 0.05 0.1
2 0.05 0.1
2.5 0.05 0.1
3 0.05 0.1
3.5 0.05 0.1
4 0.05 0.1
4.5 0.05 0.1
5 0.05 0.1
0 0.1 0.1
0.5 0.1 0.1
1 0.1 0.1
1.5 0.1 0.1
2 0.1 0.1
2.5 0.1 0.1
3 0.1 0.1
3.5 0.1 0.1
4 0.1 0.1
4.5 0.1 0.1
5 0.1 0.1
0 0.15 0.1
0.5 0.15 0.1
1 0.15 0.1
1.5 0.15 0.1
2 0.15 0.1
2.5 0.15 0.1
3 0.15 0.1
3.5 0.15 0.1
4 0.15 0.1
4.5 0.15 0.1
5 0.15 0.1
0 0.2 0.1
0.5 0.2 0.1
1 0.2 0.1
1.5 0.2 0.1
2 0.2 0.1
2.5 0.2 0.1
3 0.2 0.1
3.5 0.2 0.1
4 0.2 0.1
4.5 0.2 0.1
5 0.2 0.1
0 0.25 0.1
0.5 0.25 0.1
1 0.25 0.1
1.5 0.25 0.1
2 0.25 0.1
2.5 0.25 0.1
3 0.25 0.1
3.5 0.25 0.1
4 0.25 0.1
4.5 0.25 0.1
5 0.25 0.1
0 0.3 0.1
0.5 0.3 0.1
1 0.3 0.1
1.5 0.3 0.1
2 0.3 0.1
2.5 0.3 0.1
3 0.3 0.1
3.5 0.3 0.1
4 0.3 0.1
4.5 0.3 0.1
5 0.3 0.1
0 0.35 0.1
0.5 0.35 0.1
1 0.35 0.1
1.5 0.35 0.1
2 0.35 0.1
2.5 0.35 0.1
3 0.35 0.1
3.5 0.35 0.1
4 0.35 0.1
4.5 0.35 0.1
5 0.35 0.1
0 0.4 0.1
0.5 0.4 0.1
1 0.4 0.1
1.5 0.4 0.1
2 0.4 0.1
2.5 0.4 0.1
3 0.4 0.1
3.5 0.4 0.1
4 0.4 0.1
4.5 0.4 0.1
5 0.4 0.1
0 0.45 0.1
0.5 0.45 0.1
1 0.45 0.1
1.5 0.45 0.1
2 0.45 0.1
2.5 0.45 0.1
3 0.45 0.1
3.5 0.45 0.1
4 0.45 0.1
4.5 0.45 0.1
5 0.45 0.1
0 0.5 0.1
0.5 0.5 0.1
1 0.5 0.1
1.5 0.5 0.1
2 0.5 0.1
2.5 0.5 0.1
3 0.5 0.1
3.5 0.5 0.1
4 0.5 0.1
4.5 0.5 0.1
5 0.5 0.1
0 0.55 0.1
0.5 0.55 0.1
1 0.55 0.1
1.5 0.55 0.1
2 0.55 0.1
2.5 0.55 0.1
3 0.55 0.1
3.5 0.55 0.1
4 0.55 0.1
4.5 0.55 0.1
5 0.55 0.1
0 0.6 0.1
0.5 0.6 0.1
1 0.6 0.1
1.5 0.6 0.1
2 0.6 0.1
2.5 0.6 0.1
3 0.6 0.1
3.5 0.6 0.1
4 0.6 0.1
4.5 0.6 0.1
5 0.6 0.1
0 0.65 0.1
0.5 0.65 0.1
1 0.65 0.1
1.5 0.65 0.1
2 0.65 0.1
2.5 0.65 0.1
3 0.65 0.1
3.5 0.65 0.1
4 0.65 0.1
4.5 0.65 0.1
5 0.65 0.1
0 0.7 0.1
0.5 0.7 0.1
1 0.7 0.1
1.5 0.7 0.1
2 0.7 0.1
2.5 0.7 0.1
3 0.7 0.1
3.5 0.7 0.1
4 0.7 0.1
4.5 0.7 0.1
5 0.7 0.1
0 0.75 0.1
0.5 0.75 0.1
1 0.75 0.1
1.5 0.75 0.1
2 0.75 0.1
2.5 0.75 0.1
3 0.75 0.1
3.5 0.75 0.1
4 0.75 0.1
4.5 0.75 0.1
5 0.75 0.1
0 0.8 0.1
0.5 0.8 0.1
1 0.8 0.1
1.5 0.8 0.1
2 0.8 0.1
2.5 0.8 0.1
3 0.8 0.1
3.5 0.8 0.1
4 0.8 0.1
4.5 0.8 0.1
5 0.8 0.1
0 0.85 0.1
0.5 0.85 0.1
1 0.85 0.1
1.5 0.85 0.1
2 0.85 0.1
2.5 0.85 0.1
3 0.85 0.1
3.5 0.85 0.1
4 0.85 0.1
4.5 0.85 0.1
5 0.85 0.1
0 0.9 0.1
0.5 0.9 0.1
1 0.9 0.1
1.5 0.9 0.1
2 0.9 0.1
2.5 0.9 0.1
3 0.9 0.1
3.5 0.9 0.1
4 0.9 0.1
4.5 0.9 0.1
5 0.9 0.1
0 0.95 0.1
0.5 0.95 0.1
1 0.95 0.1
1.5 0.95 0.1
2 0.95 0.1
2.5 0.95 0.1
3 0.95 0.1
3.5 0.95 0.1
4 0.95 0.1
4.5 0.95 0.1
5 0.95 0.1
0 1 0.1
0.5 1 0.1
1 1 0.1
1.5 1 0.1
2 1 0.1
2.5 1 0.1
3 1 0.1
3.5 1 0.1
4 1 0.1
4.5 1 0.1
5 1 0.1
0 0 0.2
0.5 0 0.2
1 0 0.2
1.5 0 0.2
2 0 0.2
2.5 0 0.2
3 0 0.2
3.5 0 0.2
4 0 0.2
4.5 0 0.2
5 0 0.2
0 0.05 0.2
0.5 0.05 0.2
1 0.05 0.2
1.5 0.05 0.2
2 0.05 0.2
2.5 0.05 0.2
3 0.05 0.2
3.5 0.05 0.2
4 0.05 0.2
4.5 0.05 0.2
5 0.05 0.2
0 0.1 0.2
0.5 0.1 0.2
1 0.1 0.2
1.5 0.1 0.2
2 0.1 0.2
2.5 0.1 0.2
3 0.1 0.2
3.5 0.1 0.2
4 0.1 0.2
4.5 0.1 0.2
5 0.1 0.2
0 0.15 0.2
0.5 0.15 0.2
1 0.15 0.2
1.5 0.15 0.2
2 0.15 0.2
2.5 0.15 0.2
3 0.15 0.2
3.5 0.15 0.2
4 0.15 0.2
4.5 0.15 0.2
5 0.15 0.2
0 0.2 0.2
0.5 0.2 0.2
1 0.2 0.2
1.5 0.2 0.2
2 0.2 0.2
2.5 0.2 0.2
3 0.2 0.2
3.5 0.2 0.2
4 0.2 0.2
4.5 0.2 0.2
5 0.2 0.2
0 0.25 0.2
0.5 0.25 0.2
1 0.25 0.2
1.5 0.25 0.2
2 0.25 0.2
2.5 0.25 0.2
3 0.25 0.2
3.5 0.25 0.2
4 0.25 0.2
4.5 0.25 0.2
5 0.25 0.2
0 0.3 0.2
0.5 0.3 0.2
1 0.3 0.2
1.5 0.3 0.2
2 0.3 0.2
2.5 0.3 0.2
3 0.3 0.2
3.5 0.3 0.2
4 0.3 0.2
4.5 0.3 0.2
5 0.3 0.2
0 0.35 0.2
0.5 0.35 0.2
1 0.35 0.2
1.5 0.35 0.2
2 0.35 0.2
2.5 0.35 0.2
3 0.35 0.2
3.5 0.35 0.2
4 0.35 0.2
4.5 0.35 0.2
5 0.35 0.2
0 0.4 0.2
0.5 0.4 0.2
1 0.4 0.2
1.5 0.4 0.2
2 0.4 0.2
2.5 0.4 0.2
3 0.4 0.2
3.5 0.4 0.2
4 0.4 0.2
4.5 0.4 0.2
5 0.4 0.2
0 0.45 0.2
0.5 0.45 0.2
1 0.45 0.2
1.5 0.45 0.2
2 0.45 0.2
2.5 0.45 0.2
3 0.45 0.2
3.5 0.45 0.2
4 0.45 0.2
4.5 0.45 0.2
5 0.45 0.2
0 0.5 0.2
0.5 0.5 0.2
1 0.5 0.2
1.5 0.5 0.2
2 0.5 0.2
2.5 0.5 0.2
3 0.5 0.2
3.5 0.5 0.2
4 0.5 0.2
4.5 0.5 0.2
5 0.5 0.2
0 0.55 0.2
0.5 0.55 0.2
1 0.55 0.2
1.5 0.55 0.2
2 0.55 0.2
2.5 0.55 0.2
3 0.55 0.2
3.5 0.55 0.2
4 0.55 0.2
4.5 0.55 0.2
5 0.55 0.2
0 0.6 0.2
0.5 0.6 0.2
1 0.6 0.2
1.5 0.6 0.2
2 0.6 0.2
2.5 0.6 0.2
3 0.6 0.2
3.5 0.6 0.2
4 0.6 0.2
4.5 0.6 0.2
5 0.6 0.2
0 0.65 0.2
0.5 0.65 0.2
1 0.65 0.2
1.5 0.65 0.2
2 0.65 0.2
2.5 0.65 0.2
3 0.65 0.2
3.5 0.65 0.2
4 0.65 0.2
4.5 0.65 0.2
5 0.65 0.2
0 0.7 0.2
0.5 0.7 0.2
1 0.7 0.2
1.5 0.7 0.2
2 0.7 0.2
2.5 0.7 0.2
3 0.7 0.2
3.5 0.7 0.2
4 0.7 0.2
4.5 0.7 0.2
5 0.7 0.2
0 0.75 0.2
0.5 0.75 0.2
1 0.75 0.2
1.5 0.75 0.2
2 0.75 0.2
2.5 0.75 0.2
3 0.75 0.2
3.5 0.75 0.2
4 0.75 0.2
4.5 0.75 0.2
5 0.75 0.2
0 0.8 0.2
0.5 0.8 0.2
1 0.8 0.2
1.5 0.8 0.2
2 0.8 0.2
2.5 0.8 0.2
3 0.8 0.2
3.5 0.8 0.2
4 0.8 0.2
4.5 0.8 0.2
5 0.8 0.2
0 0.85 0.2
0.5 0.85 0.2
1 0.85 0.2
1.5 0.85 0.2
2 0.85 0.2
2.5 0.85 0.2
3 0.85 0.2
3.5 0.85 0.2
4 0.85 0.2
4.5 0.85 0.2
5 0.85 0.2
0 0.9 0.2
0.5 0.9 0.2
1 0.9 0.2
1.5 0.9 0.2
2 0.9 0.2
2.5 0.9 0.2
3 0.9 0.2
3.5 0.9 0.2
4 0.9 0.2
4.5 0.9 0.2
5 0.9 0.2
0 0.95 0.2
0.5 0.95 0.2
1 0.95 0.2
1.5 0.95 0.2
2 0.95 0.2
2.5 0.95 0.2
3 0.95 0.2
3.5 0.95 0.2
4 0.95 0.2
4.5 0.95 0.2
5 0.95 0.2
0 1 0.2
0.5 1 0.2
1 1 0.2
1.5 1 0.2
2 1 0.2
2.5 1 0.2
3 1 0.2
3.5 1 0.2
4 1 0.2
4.5 1 0.2
5 1 0.2
0 0 0.3
0.5 0 0.3
1 0 0.3
1.5 0 0.3
2 0 0.3
2.5 0 0.3
3 0 0.3
3.5 0 0.3
4 0 0.3
4.5 0 0.3
5 0 0.3
0 0.05 0.3
0.5 0.05 0.3
1 0.05 0.3
1.5 0.05 0.3
2 0.05 0.3
2.5 0.05 0.3
3 0.05 0.3
3.5 0.05 0.3
4 0.05 0.3
4.5 0.05 0.3
5 0.05 0.3
0 0.1 0.3
0.5 0.1 0.3
1 0.1 0.3
1.5 0.1 0.3
2 0.1 0.3
2.5 0.1 0.3
3 0.1 0.3
3.5 0.1 0.3
4 0.1 0.3
4.5 0.1 0.3
5 0.1 0.3
0 0.15 0.3
0.5 0.15 0.3
1 0.15 0.3
1.5 0.15 0.3
2 0.15 0.3
2.5 0.15 0.3
3 0.15 0.3
3.5 0.15 0.3
4 0.15 0.3
4.5 0.15 0.3
5 0.15 0.3
0 0.2 0.3
0.5 0.2 0.3
1 0.2 0.3
1.5 0.2 0.3
2 0.2 0.3
2.5 0.2 0.3
3 0.2 0.3
3.5 0.2 0.3
4 0.2 0.3
4.5 0.2 0.3
5 0.2 0.3
0 0.25 0.3
0.5 0.25 0.3
1 0.25 0.3
1.5 0.25 0.3
2 0.25 0.3
2.5 0.25 0.3
3 0.25 0.3
3.5 0.25 0.3
4 0.25 0.3
4.5 0.25 0.3
5 0.25 0.3
0 0.3 0.3
0.5 0.3 0.3
1 0.3 0.3
1.5 0.3 0.3
2 0.3 0.3
2.5 0.3 0.3
3 0.3 0.3
3.5 0.3 0.3
4 0.3 0.3
4.5 0.3 0.3
5 0.3 0.3
0 0.35 0.3
0.5 0.35 0.3
1 0.35 0.3
1.5 0.35 0.3
2 0.35 0.3
2.5 0.35 0.3
3 0.35 0.3
3.5 0.35 0.3
4 0.35 0.3
4.5 0.35 0.3
5 0.35 0.3
0 0.4 0.3
0.5 0.4 0.3
1 0.4 0.3
1.5 0.4 0.3
2 0.4 0.3
2.5 0.4 0.3
3 0.4 0.3
3.5 0.4 0.3
4 0.4 0.3
4.5 0.4 0.3
5 0.4 0.3
0 0.45 0.3
0.5 0.45 0.3
1 0.45 0.3
1.5 0.45 0.3
2 0.45 0.3
2.5 0.45 0.3
3 0.45 0.3
3.5 0.45 0.3
4 0.45 0.3
4.5 0.45 0.3
5 0.45 0.3
0 0.5 0.3
0.5 0.5 0.3
1 0.5 0.3
1.5 0.5 0.3
2 0.5 0.3
2.5 0.5 0.3
3 0.5 0.3
3.5 0.5 0.3
4 0.5 0.3
4.5 0.5 0.3
5 0.5 0.3
0 0.55 0.3
0.5 0.55 0.3
1 0.55 0.3
1.5 0.55 0.3
2 0.55 0.3
2.5 0.55 0.3
3 0.55 0.3
3.5 0.55 0.3
4 0.55 0.3
4.5 0.55 0.3
5 0.55 0.3
0 0.6 0.3
0.5 0.6 0.3
1 0.6 0.3
1.5 0.6 0.3
2 0.6 0.3
2.5 0.6 0.3
3 0.6 0.3
3.5 0.6 0.3
4 0.6 0.3
4.5 0.6 0.3
5 0.6 0.3
0 0.65 0.3
0.5 0.65 0.3
1 0.65 0.3
1.5 0.65 0.3
2 0.65 0.3
2.5 0.65 0.3
3 0.65 0.3
3.5 0.65 0.3
4 0.65 0.3
4.5 0.65 0.3
5 0.65 0.3
0 0.7 0.3
0.5 0.7 0.3
1 0.7 0.3
1.5 0.7 0.3
2 0.7 0.3
2.5 0.7 0.3
3 0.7 0.3
3.5 0.7 0.3
4 0.7 0.3
4.5 0.7 0.3
5 0.7 0.3
0 0.75 0.3
0.5 0.75 0.3
1 0.75 0.3
1.5 0.75 0.3
2 0.75 0.3
2.5 0.75 0.3
3 0.75 0.3
3.5 0.75 0.3
4 0.75 0.3
4.5 0.75 0.3
5 0.75 0.3
0 0.8 0.3
0.5 0.8 0.3
1 0.8 0.3
1.5 0.8 0.3
2 0.8 0.3
2.5 0.8 0.3
3 0.8 0.3
3.5 0.8 0.3
4 0.8 0.3
4.5 0.8 0.3
5 0.8 0.3
0 0.85 0.3
0.5 0.85 0.3
1 0.85 0.3
1.5 0.85 0.3
2 0.85 0.3
2.5 0.85 0.3
3 0.85 0.3
3.5 0.85 0.3
4 0.85 0.3
4.5 0.85 0.3
5 0.85 0.3
0 0.9 0.3
0.5 0.9 0.3
1 0.9 0.3
1.5 0.9 0.3
2 0.9 0.3
2.5 0.9 0.3
3 0.9 0.3
3.5 0.9 0.3
4 0.9 0.3
4.5 0.9 0.3
5 0.9 0.3
0 0.95 0.3
0.5 0.95 0.3
1 0.95 0.3
1.5 0.95 0.3
2 0.95 0.3
2.5 0.95 0.3
3 0.95 0.3
3.5 0.95 0.3
4 0.95 0.3
4.5 0.95 0.3
5 0.95 0.3
0 1 0.3
0.5 1 0.3
1 1 0.3
1.5 1 0.3
2 1 0.3
2.5 1 0.3
3 1 0.3
3.5 1 0.3
4 1 0.3
4.5 1 0.3
5 1 0.3
0 0 0.4
[...]
CELL_DATA 2000
SCALARS pressure float 1
LOOKUP_TABLE default
0
0
0.875884
1.02936
0.851072
0.686857
0.524819
0.363326
0.201127
0.024438
0
0
0.876663
1.02128
0.85044
0.68674
0.524792
0.363322
0.201178
0.0273319
0
0
0.837548
1.01675
0.849637
0.686597
0.524759
0.363321
0.201286
0.0298717
0
0
0.832783
1.00618
0.848745
0.686438
0.52472
0.363321
0.201424
0.0319767
1.91326
2.07764
0.850488
0.997392
0.847827
0.686269
0.524678
0.363321
0.201571
0.0336894
1.90742
2.05574
0.895579
0.991942
0.846991
0.686097
0.524633
0.363321
0.201714
0.0350527
1.89657
2.02655
0.947852
0.989555
0.8463
0.685929
0.524586
0.363319
0.201839
0.0361021
1.88171
1.99571
1.00013
0.989432
0.845783
0.685769
0.524538
0.363314
0.201938
0.0368652
1.86593
1.96599
1.04841
0.99094
0.845442
0.68562
0.524489
0.363306
0.202006
0.0373624
1.85147
1.93875
1.09161
0.993549
0.845257
0.685485
0.52444
0.363294
0.202038
0.0376073
1.83928
1.91451
1.12942
0.996826
0.8452
0.685362
0.524392
0.363278
0.202034
0.0376064
1.83005
1.89337
1.16195
1.00042
0.845237
0.685252
0.524345
0.363259
0.201992
0.0373599
1.82441
1.87525
1.18949
1.00405
0.845335
0.685151
0.5243
0.363237
0.201916
0.0368609
1.82256
1.86
1.21237
1.00749
0.845459
0.685059
0.524256
0.363213
0.201808
0.0360962
1.82422
1.84748
1.23097
1.01056
0.845577
0.684972
0.524214
0.363188
0.201675
0.0350453
1.82906
1.8376
1.24561
1.01312
0.845662
0.684888
0.524175
0.363163
0.201526
0.0336805
1.83648
1.8303
1.25662
1.01508
0.845689
0.684805
0.524139
0.36314
0.201372
0.0319665
1.84459
1.82549
1.26423
1.01634
0.845641
0.684722
0.524106
0.363119
0.201228
0.0298605
1.85068
1.82317
1.26868
1.01688
0.845508
0.684638
0.524077
0.363104
0.201116
0.0273197
1.854
1.82304
1.26997
1.01668
0.845296
0.684558
0.524053
0.363094
0.201061
0.0244251
0
0
0.879931
1.02495
0.850672
0.68677
0.5248
0.363338
0.201354
0.0293224
0
0
0.87968
1.0181
0.849937
0.686635
0.52477
0.363334
0.201418
0.0328623
0
0
0.837625
1.01406
0.84918
0.686495
0.524737
0.363333
0.201541
0.035513
0
0
0.860702
1.00581
0.848317
0.686342
0.5247
0.363334
0.201688
0.0376726
1.89617
2.13592
0.77712
0.99472
0.847437
0.686183
0.52466
0.363335
0.201841
0.0394186
1.88942
2.11427
0.833656
0.987543
0.846643
0.686025
0.524618
0.363336
0.201986
0.0408026
1.87881
2.06347
0.9082
0.986234
0.84602
0.685871
0.524574
0.363334
0.202114
0.0418648
1.86548
2.01983
0.975179
0.987276
0.845583
0.685727
0.52453
0.363331
0.202214
0.0426359
1.85018
1.98273
1.03303
0.989614
0.84532
0.685596
0.524485
0.363324
0.202283
0.0431378
1.8345
1.95123
1.08227
0.992814
0.845209
0.685476
0.52444
0.363313
0.202316
0.0433848
1.82125
1.9243
1.12396
0.996513
0.845217
0.68537
0.524396
0.363298
0.202312
0.043384
1.81152
1.90128
1.159
1.00041
0.845312
0.685274
0.524353
0.36328
0.20227
0.0431354
1.80573
1.88165
1.18815
1.00426
0.845458
0.685188
0.524311
0.363259
0.202193
0.0426319
1.80409
1.86501
1.21207
1.00785
0.845623
0.685108
0.52427
0.363236
0.202085
0.0418594
1.80654
1.85108
1.23129
1.01103
0.845776
0.685032
0.524232
0.363211
0.20195
0.0407957
1.81234
1.83962
1.24625
1.01367
0.845888
0.684957
0.524195
0.363186
0.201798
0.0394104
1.81904
1.83067
1.25737
1.01568
0.845936
0.684881
0.524161
0.363162
0.201638
0.0376631
1.82542
1.82445
1.26494
1.01697
0.845903
0.684803
0.524129
0.363142
0.201486
0.0355025
1.83118
1.82107
1.26922
1.01751
0.845774
0.684721
0.5241
0.363126
0.201359
0.0328508
1.83565
1.821
1.2703
1.0172
0.845522
0.684628
0.524073
0.363115
0.201291
0.02931
0
0
0.885209
1.02235
0.85041
0.686703
0.524786
0.36336
0.201671
0.0328034
0
0
0.882811
1.01659
0.849689
0.686568
0.524755
0.363357
0.201741
0.0364402
0
0
0.848795
1.01367
0.848982
0.686431
0.524723
0.363357
0.20187
0.0391571
0
0
0.872742
1.00721
0.848188
0.686285
0.524687
0.363358
0.202023
0.0413635
1.87998
2.15639
0.741729
0.995781
0.847344
0.686134
0.524649
0.36336
0.202181
0.0431419
1.8722
2.17355
0.760029
0.985638
0.84653
0.685983
0.524609
0.363362
0.20233
0.044548
1.86349
2.11603
0.858312
0.982414
0.845866
0.685838
0.524568
0.363362
0.20246
0.0456253
1.85777
2.05858
0.943742
0.983959
0.845419
0.685702
0.524526
0.363359
0.202562
0.0464061
1.85329
2.01187
1.01259
0.987089
0.845178
0.68558
0.524483
0.363352
0.202632
0.0469139
1.84783
1.97362
1.06918
0.990949
0.845101
0.68547
0.524441
0.363342
0.202666
0.0471637
1.84085
1.94217
1.11586
0.995178
0.845149
0.685373
0.5244
0.363329
0.202662
0.0471629
1.8334
1.91598
1.15434
0.999495
0.845283
0.685287
0.524359
0.363311
0.20262
0.0469116
1.82742
1.89394
1.18585
1.00367
0.845468
0.68521
0.52432
0.36329
0.202542
0.0464023
1.82303
1.87534
1.21135
1.00753
0.845668
0.685138
0.524282
0.363267
0.202432
0.0456201
1.81862
1.85972
1.23158
1.01091
0.845851
0.68507
0.524245
0.363243
0.202295
0.0445415
1.81357
1.84676
1.2471
1.01371
0.845991
0.685002
0.524211
0.363218
0.202139
0.043134
1.80894
1.83607
1.25834
1.01585
0.846065
0.684932
0.524178
0.363194
0.201975
0.0413545
1.80754
1.82785
1.26579
1.01724
0.846053
0.684857
0.524147
0.363174
0.201817
0.039147
1.81161
1.82292
1.26991
1.01781
0.845932
0.684776
0.524118
0.363157
0.201683
0.0364292
1.81763
1.8221
1.27087
1.0175
0.845678
0.684683
0.524091
0.363146
0.20161
0.0327916
0
0
0.884775
1.02152
0.850276
0.686662
0.524777
0.363384
0.201941
0.0349703
0
0
0.881491
1.01607
0.84957
0.686528
0.524746
0.36338
0.202013
0.0386279
0
0
0.845836
1.01366
0.848896
0.686393
0.524714
0.363381
0.202145
0.041369
0
0
0.862945
1.00787
0.848149
0.686252
0.52468
0.363383
0.2023
0.0435974
1.8722
2.18641
0.727884
0.996774
0.847355
0.686108
0.524643
0.363385
0.202461
0.0453938
1.86425
2.20935
0.726953
0.986217
0.846574
0.685964
0.524604
0.363387
0.202613
0.0468139
1.85779
2.15277
0.820886
0.981802
0.845887
0.685824
0.524565
0.363388
0.202744
0.0479015
1.85866
2.08951
0.91716
0.982521
0.845381
0.685691
0.524524
0.363385
0.202848
0.0486894
1.86658
2.03683
0.995133
0.985449
0.845096
0.685571
0.524483
0.36338
0.202919
0.0492017
1.87653
1.99317
1.05777
0.989365
0.845
0.685465
0.524443
0.36337
0.202954
0.0494537
1.88253
1.95623
1.1087
0.993753
0.845043
0.685371
0.524403
0.363357
0.20295
0.049453
1.88207
1.92543
1.15031
0.998278
0.845184
0.685289
0.524364
0.36334
0.202907
0.0491995
1.87592
1.90084
1.18416
1.00268
0.845383
0.685216
0.524326
0.363319
0.202829
0.0486858
1.86413
1.88174
1.21121
1.00677
0.845605
0.68515
0.52429
0.363296
0.202717
0.0478964
1.84615
1.8664
1.23217
1.01041
0.845824
0.685087
0.524255
0.363272
0.202578
0.0468076
1.82506
1.85307
1.24786
1.01346
0.846004
0.685025
0.524221
0.363247
0.20242
0.0453862
1.80758
1.84141
1.25909
1.01577
0.84611
0.68496
0.524189
0.363223
0.202254
0.0435887
1.79947
1.83201
1.26648
1.01727
0.846119
0.684889
0.524159
0.363203
0.202093
0.0413592
1.80147
1.82594
1.27051
1.01791
0.84601
0.68481
0.524131
0.363186
0.201957
0.0386172
1.80796
1.82451
1.27138
1.01762
0.845761
0.684718
0.524103
0.363174
0.201882
0.0349588
0
0
0.882698
1.02126
0.850222
0.686643
0.524773
0.363398
0.202093
0.0360034
0
0
0.878607
1.01588
0.849524
0.686509
0.524742
0.363394
0.202165
0.0396663
0
0
0.841105
1.01364
0.848866
0.686376
0.524711
0.363395
0.202298
0.0424153
0
0
0.855821
1.00805
0.84814
0.686238
0.524677
0.363397
0.202454
0.044652
1.86958
2.20298
0.719057
0.997126
0.84737
0.686097
0.52464
0.3634
0.202616
0.0464559
1.8617
2.22693
0.716464
0.986623
0.846614
0.685956
0.524603
0.363403
0.202769
0.0478823
1.85723
2.17035
0.806513
0.982201
0.845948
0.68582
0.524564
0.363403
0.202901
0.0489747
1.86287
2.10583
0.902379
0.982809
0.845447
0.685691
0.524524
0.363401
0.203006
0.0497662
1.87786
2.05071
0.983539
0.985361
0.845128
0.685572
0.524484
0.363396
0.203078
0.0502808
1.89686
2.00379
1.05047
0.988792
0.84497
0.685463
0.524444
0.363386
0.203112
0.0505339
1.91247
1.96331
1.10492
0.992841
0.84496
0.685368
0.524405
0.363373
0.203108
0.0505332
1.91785
1.92918
1.14883
0.997271
0.845073
0.685285
0.524367
0.363356
0.203066
0.0502786
1.91156
1.90306
1.18386
1.00182
0.845281
0.685214
0.524329
0.363336
0.202987
0.0497627
1.89366
1.88431
1.21134
1.00617
0.845536
0.685152
0.524294
0.363313
0.202875
0.0489698
1.86578
1.86955
1.23246
1.01004
0.845788
0.685094
0.524259
0.363289
0.202735
0.0478761
1.83532
1.85653
1.24823
1.01325
0.845993
0.685035
0.524226
0.363264
0.202576
0.0464485
1.81053
1.84468
1.25948
1.01568
0.846119
0.684972
0.524195
0.36324
0.202408
0.0446434
1.79758
1.83474
1.26686
1.01725
0.846141
0.684903
0.524165
0.363219
0.202246
0.0424057
1.79767
1.82807
1.27085
1.01792
0.84604
0.684826
0.524137
0.363202
0.202109
0.0396558
1.80424
1.82631
1.27168
1.01765
0.845794
0.684734
0.52411
0.363191
0.202033
0.035992
0
0
0.882698
1.02126
0.850222
0.686643
0.524773
0.363398
0.202093
0.0360034
0
0
0.878607
1.01588
0.849524
0.686509
0.524742
0.363394
0.202165
0.0396663
0
0
0.841105
1.01364
0.848866
0.686376
0.524711
0.363395
0.202298
0.0424153
0
0
0.855821
1.00805
0.84814
0.686238
0.524677
0.363397
0.202454
0.044652
1.86958
2.20298
0.719057
0.997126
0.84737
0.686097
0.52464
0.3634
0.202616
0.0464559
1.8617
2.22693
0.716464
0.986623
0.846614
0.685956
0.524603
0.363403
0.202769
0.0478823
1.85723
2.17035
0.806513
0.982201
0.845948
0.68582
0.524564
0.363403
0.202901
0.0489747
1.86287
2.10583
0.902379
0.982809
0.845447
0.685691
0.524524
0.363401
0.203006
0.0497662
1.87786
2.05071
0.983539
0.985361
0.845128
0.685572
0.524484
0.363396
0.203078
0.0502808
1.89686
2.00379
1.05047
0.988792
0.84497
0.685463
0.524444
0.363386
0.203112
0.0505339
1.91247
1.96331
1.10492
0.992841
0.84496
0.685368
0.524405
0.363373
0.203108
0.0505332
1.91785
1.92918
1.14883
0.997271
0.845073
0.685285
0.524367
0.363356
0.203066
0.0502786
1.91156
1.90306
1.18386
1.00182
0.845281
0.685214
0.524329
0.363336
0.202987
0.0497627
1.89366
1.88431
1.21134
1.00617
0.845536
0.685152
0.524294
0.363313
0.202875
0.0489698
1.86578
1.86955
1.23246
1.01004
0.845788
0.685094
0.524259
0.363289
0.202735
0.0478761
1.83532
1.85653
1.24823
1.01325
0.845993
0.685035
0.524226
0.363264
0.202576
0.0464485
1.81053
1.84468
1.25948
1.01568
0.846119
0.684972
0.524195
0.36324
0.202408
0.0446434
1.79758
1.83474
1.26686
1.01725
0.846141
0.684903
0.524165
0.363219
0.202246
0.0424057
1.79767
1.82807
1.27085
1.01792
0.84604
0.684826
0.524137
0.363202
0.202109
0.0396558
1.80424
1.82631
1.27168
1.01765
0.845794
0.684734
0.52411
0.363191
0.202033
0.035992
0
0
0.884775
1.02152
0.850276
0.686662
0.524777
0.363384
0.201941
0.0349703
0
0
0.881491
1.01607
0.84957
0.686528
0.524746
0.36338
0.202013
0.0386279
0
0
0.845836
1.01366
0.848896
0.686393
0.524714
0.363381
0.202145
0.041369
0
0
0.862945
1.00787
0.848149
0.686252
0.52468
0.363383
0.2023
0.0435974
1.8722
2.18641
0.727884
0.996774
0.847355
0.686108
0.524643
0.363385
0.202461
0.0453938
1.86425
2.20935
0.726953
0.986217
0.846574
0.685964
0.524604
0.363387
0.202613
0.0468139
1.85779
2.15277
0.820886
0.981802
0.845887
0.685824
0.524565
0.363388
0.202744
0.0479015
1.85866
2.08951
0.91716
0.982521
0.845381
0.685691
0.524524
0.363385
0.202848
0.0486894
1.86658
2.03683
0.995133
0.985449
0.845096
0.685571
0.524483
0.36338
0.202919
0.0492017
1.87653
1.99317
1.05777
0.989365
0.845
0.685465
0.524443
0.36337
0.202954
0.0494537
1.88253
1.95623
1.1087
0.993753
0.845043
0.685371
0.524403
0.363357
0.20295
0.049453
1.88207
1.92543
1.15031
0.998278
0.845184
0.685289
0.524364
0.36334
0.202907
0.0491995
1.87592
1.90084
1.18416
1.00268
0.845383
0.685216
0.524326
0.363319
0.202829
0.0486858
1.86413
1.88174
1.21121
1.00677
0.845605
0.68515
0.52429
0.363296
0.202717
0.0478964
1.84615
1.8664
1.23217
1.01041
0.845824
0.685087
0.524255
0.363272
0.202578
0.0468076
1.82506
1.85307
1.24786
1.01346
0.846004
0.685025
0.524221
0.363247
0.20242
0.0453862
1.80758
1.84141
1.25909
1.01577
0.84611
0.68496
0.524189
0.363223
0.202254
0.0435887
1.79947
1.83201
1.26648
1.01727
0.846119
0.684889
0.524159
0.363203
0.202093
0.0413592
1.80147
1.82594
1.27051
1.01791
0.84601
0.68481
0.524131
0.363186
0.201957
0.0386172
1.80796
1.82451
1.27138
1.01762
0.845761
0.684718
0.524103
0.363174
0.201882
0.0349588
0
0
0.885209
1.02235
0.85041
0.686703
0.524786
0.36336
0.201671
0.0328034
0
0
0.882811
1.01659
0.849689
0.686568
0.524755
0.363357
0.201741
0.0364402
0
0
0.848795
1.01367
0.848982
0.686431
0.524723
0.363357
0.20187
0.0391571
0
0
0.872742
1.00721
0.848188
0.686285
0.524687
0.363358
0.202023
0.0413635
1.87998
2.15639
0.741729
0.995781
0.847344
0.686134
0.524649
0.36336
0.202181
0.0431419
1.8722
2.17355
0.760029
0.985638
0.84653
0.685983
0.524609
0.363362
0.20233
0.044548
1.86349
2.11603
0.858312
0.982414
0.845866
0.685838
0.524568
0.363362
0.20246
0.0456253
1.85777
2.05858
0.943742
0.983959
0.845419
0.685702
0.524526
0.363359
0.202562
0.0464061
1.85329
2.01187
1.01259
0.987089
0.845178
0.68558
0.524483
0.363352
0.202632
0.0469139
1.84783
1.97362
1.06918
0.990949
0.845101
0.68547
0.524441
0.363342
0.202666
0.0471637
1.84085
1.94217
1.11586
0.995178
0.845149
0.685373
0.5244
0.363329
0.202662
0.0471629
1.8334
1.91598
1.15434
0.999495
0.845283
0.685287
0.524359
0.363311
0.20262
0.0469116
1.82742
1.89394
1.18585
1.00367
0.845468
0.68521
0.52432
0.36329
0.202542
0.0464023
1.82303
1.87534
1.21135
1.00753
0.845668
0.685138
0.524282
0.363267
0.202432
0.0456201
1.81862
1.85972
1.23158
1.01091
0.845851
0.68507
0.524245
0.363243
0.202295
0.0445415
1.81357
1.84676
1.2471
1.01371
0.845991
0.685002
0.524211
0.363218
0.202139
0.043134
1.80894
1.83607
1.25834
1.01585
0.846065
0.684932
0.524178
0.363194
0.201975
0.0413545
1.80754
1.82785
1.26579
1.01724
0.846053
0.684857
0.524147
0.363174
0.201817
0.039147
1.81161
1.82292
1.26991
1.01781
0.845932
0.684776
0.524118
0.363157
0.201683
0.0364292
1.81763
1.8221
1.27087
1.0175
0.845678
0.684683
0.524091
0.363146
0.20161
0.0327916
0
0
0.879931
1.02495
0.850672
0.68677
0.5248
0.363338
0.201354
0.0293224
0
0
0.87968
1.0181
0.849937
0.686635
0.52477
0.363334
0.201418
0.0328623
0
0
0.837625
1.01406
0.84918
0.686495
0.524737
0.363333
0.201541
0.035513
0
0
0.860702
1.00581
0.848317
0.686342
0.5247
0.363334
0.201688
0.0376726
1.89617
2.13592
0.77712
0.99472
0.847437
0.686183
0.52466
0.363335
0.201841
0.0394186
1.88942
2.11427
0.833656
0.987543
0.846643
0.686025
0.524618
0.363336
0.201986
0.0408026
1.87881
2.06347
0.9082
0.986234
0.84602
0.685871
0.524574
0.363334
0.202114
0.0418648
1.86548
2.01983
0.975179
0.987276
0.845583
0.685727
0.52453
0.363331
0.202214
0.0426359
1.85018
1.98273
1.03303
0.989614
0.84532
0.685596
0.524485
0.363324
0.202283
0.0431378
1.8345
1.95123
1.08227
0.992814
0.845209
0.685476
0.52444
0.363313
0.202316
0.0433848
1.82125
1.9243
1.12396
0.996513
0.845217
0.68537
0.524396
0.363298
0.202312
0.043384
1.81152
1.90128
1.159
1.00041
0.845312
0.685274
0.524353
0.36328
0.20227
0.0431354
1.80573
1.88165
1.18815
1.00426
0.845458
0.685188
0.524311
0.363259
0.202193
0.0426319
1.80409
1.86501
1.21207
1.00785
0.845623
0.685108
0.52427
0.363236
0.202085
0.0418594
1.80654
1.85108
1.23129
1.01103
0.845776
0.685032
0.524232
0.363211
0.20195
0.0407957
1.81234
1.83962
1.24625
1.01367
0.845888
0.684957
0.524195
0.363186
0.201798
0.0394104
1.81904
1.83067
1.25737
1.01568
0.845936
0.684881
0.524161
0.363162
0.201638
0.0376631
1.82542
1.82445
1.26494
1.01697
0.845903
0.684803
0.524129
0.363142
0.201486
0.0355025
1.83118
1.82107
1.26922
1.01751
0.845774
0.684721
0.5241
0.363126
0.201359
0.0328508
1.83565
1.821
1.2703
1.0172
0.845522
0.684628
0.524073
0.363115
0.201291
0.02931
0
0
0.875884
1.02936
0.851072
0.686857
0.524819
0.363326
0.201127
0.024438
0
0
0.876663
1.02128
0.85044
0.68674
0.524792
0.363322
0.201178
0.0273319
0
0
0.837548
1.01675
0.849637
0.686597
0.524759
0.363321
0.201286
0.0298717
0
0
0.832783
1.00618
0.848745
0.686438
0.52472
0.363321
0.201424
0.0319767
1.91326
2.07764
0.850488
0.997392
0.847827
0.686269
0.524678
0.363321
0.201571
0.0336894
1.90742
2.05574
0.895579
0.991942
0.846991
0.686097
0.524633
0.363321
0.201714
0.0350527
1.89657
2.02655
0.947852
0.989555
0.8463
0.685929
0.524586
0.363319
0.201839
0.0361021
1.88171
1.99571
1.00013
0.989432
0.845783
0.685769
0.524538
0.363314
0.201938
0.0368652
1.86593
1.96599
1.04841
0.99094
0.845442
0.68562
0.524489
0.363306
0.202006
0.0373624
1.85147
1.93875
1.09161
0.993549
0.845257
0.685485
0.52444
0.363294
0.202038
0.0376073
1.83928
1.91451
1.12942
0.996826
0.8452
0.685362
0.524392
0.363278
0.202034
0.0376064
1.83005
1.89337
1.16195
1.00042
0.845237
0.685252
0.524345
0.363259
0.201992
0.0373599
1.82441
1.87525
1.18949
1.00405
0.845335
0.685151
0.5243
0.363237
0.201916
0.0368609
1.82256
1.86
1.21237
1.00749
0.845459
0.685059
0.524256
0.363213
0.201808
0.0360962
1.82422
1.84748
1.23097
1.01056
0.845577
0.684972
0.524214
0.363188
0.201675
0.0350453
1.82906
1.8376
1.24561
1.01312
0.845662
0.684888
0.524175
0.363163
0.201526
0.0336805
1.83648
1.8303
1.25662
1.01508
0.845689
0.684805
0.524139
0.36314
0.201372
0.0319665
1.84459
1.82549
1.26423
1.01634
0.845641
0.684722
0.524106
0.363119
0.201228
0.0298605
1.85068
1.82317
1.26868
1.01688
0.845508
0.684638
0.524077
0.363104
0.201116
0.0273197
1.854
1.82304
1.26997
1.01668
0.845296
0.684558
0.524053
0.363094
0.201061
0.0244251

VECTORS velocity float
0 0 0
0 0 0
0.844445 -0.0339206 0.000608627
0.709883 -0.00391874 0.000370899
0.75524 -0.000827281 4.98628e-05
0.765009 -0.000179673 1.00518e-05
0.767154 -4.0849e-05 2.09969e-06
0.767659 -1.01945e-05 -1.11409e-06
0.768007 -1.31551e-05 -2.179e-05
0.776475 -0.000579907 -0.000485583
0 0 0
0 0 0
-0.177482 -0.101219 0.000687619
0.716584 -0.0135524 0.00029421
0.781018 -0.00255734 5.4343e-05
0.791638 -0.000551303 1.11484e-05
0.793926 -0.000125313 2.33637e-06
0.794464 -3.1231e-05 -1.10648e-06
0.794826 -3.95366e-05 -2.30037e-05
0.797108 -0.00109412 -0.000538387
0 0 0
0 0 0
0.859761 -0.170704 0.00182503
0.739444 -0.0229211 0.000243471
0.782809 -0.00428874 4.84466e-05
0.792623 -0.00092559 1.06259e-05
0.794798 -0.000210575 2.26028e-06
0.795311 -5.22886e-05 -1.15353e-06
0.795621 -6.10703e-05 -2.38011e-05
0.7977 -0.000941321 -0.000549566
0 0 0
0 0 0
-0.162325 -0.241757 0.000889868
0.733417 -0.0309468 0.000116055
0.783908 -0.0058743 4.32338e-05
0.792881 -0.0012747 9.72741e-06
0.794873 -0.000290565 2.08476e-06
0.795344 -7.17358e-05 -1.22188e-06
0.795606 -7.35079e-05 -2.43304e-05
0.797761 -0.000775651 -0.000555494
0.46191 -0.0197484 -0.0425363
0.943257 0.00256111 -0.0194238
0.8724 -0.267343 0.00969091
0.754896 -0.0380338 0.000519116
0.785608 -0.00726874 4.3788e-05
0.793186 -0.00158799 8.61661e-06
0.794939 -0.000362943 1.83983e-06
0.795357 -8.89727e-05 -1.30181e-06
0.795575 -7.84739e-05 -2.46611e-05
0.7978 -0.000626898 -0.000558907
0.524127 -0.0530448 -0.048673
1.00254 0.00297095 -0.0156118
0.929599 -0.245241 0.00901924
0.76987 -0.0423506 0.000645422
0.78751 -0.00841192 4.10158e-05
0.79355 -0.00185695 7.24863e-06
0.795019 -0.000425833 1.53606e-06
0.795373 -0.000103568 -1.39133e-06
0.795552 -7.75477e-05 -2.48841e-05
0.797832 -0.000493509 -0.00056096
0.567981 -0.0731397 -0.0554145
0.997408 -0.00164947 -0.0124388
0.930428 -0.219672 0.00512024
0.781302 -0.0446508 0.000449665
0.789536 -0.00928317 3.19451e-05
0.793959 -0.0020749 5.65552e-06
0.795109 -0.000477652 1.18814e-06
0.795391 -0.000115194 -1.48717e-06
0.795536 -7.19975e-05 -2.50381e-05
0.797857 -0.000372573 -0.000562213
0.605329 -0.0799261 -0.0621395
0.991437 -0.00605184 -0.0107367
0.928575 -0.194716 0.00291588
0.791099 -0.0453337 0.00028779
0.791629 -0.00987271 2.23615e-05
0.794402 -0.00223693 3.96621e-06
0.795209 -0.000517136 8.09981e-07
0.795412 -0.000123622 -1.58666e-06
0.795526 -6.28727e-05 -2.51453e-05
0.797876 -0.000261143 -0.000562973
0.635757 -0.0750833 -0.0681812
0.986514 -0.00910635 -0.0098924
0.926789 -0.171342 0.00159262
0.799657 -0.0447307 0.000172139
0.793719 -0.0101826 1.30689e-05
0.794866 -0.00233992 2.24687e-06
0.795314 -0.00054337 4.14118e-07
0.795435 -0.000128718 -1.6873e-06
0.795522 -5.107e-05 -2.52188e-05
0.79789 -0.000156357 -0.000563409
0.658925 -0.0607721 -0.0730923
0.982232 -0.0104897 -0.0095026
0.925157 -0.149754 0.00075337
0.807088 -0.0431022 8.9276e-05
0.795753 -0.0102233 4.63997e-06
0.795338 -0.00238254 5.54721e-07
0.795423 -0.000555796 1.21009e-08
0.79546 -0.000130442 -1.78664e-06
0.795523 -3.73886e-05 -2.52654e-05
0.797897 -5.54518e-05 -0.000563611