# vtk DataFile Version 2.0
TestTestTest
ASCII

DATASET STRUCTURED_GRID
DIMENSIONS 11 21 11
POINTS 2541 float
0 0 0
0.5 0 0
1 0 0
1.5 0 0
2 0 0
2.5 0 0
3 0 0
3.5 0 0
4 0 0
4.5 0 0
5 0 0
0 0.05 0
0.5 0.05 0
1 0.05 0
1.5 0.05 0
2 0.05 0
2.5 0.05 0
3 0.05 0
3.5 0.05 0
4 0.05 0
4.5 0.05 0
5 0.05 0
0 0.1 0
0.5 0.1 0
1 0.1 0
1.5 0.1 0
2 0.1 0
2.5 0.1 0
3 0.1 0
3.5 0.1 0
4 0.1 0
4.5 0.1 0
5 0.1 0
0 0.15 0
0.5 0.15 0
1 0.15 0
1.5 0.15 0
2 0.15 0
2.5 0.15 0
3 0.15 0
3.5 0.15 0
4 0.15 0
4.5 0.15 0
5 0.15 0
0 0.2 0
0.5 0.2 0
1 0.2 0
1.5 0.2 0
2 0.2 0
2.5 0.2 0
3 0.2 0
3.5 0.2 0
4 0.2 0
4.5 0.2 0
5 0.2 0
0 0.25 0
0.5 0.25 0
1 0.25 0
1.5 0.25 0
2 0.25 0
2.5 0.25 0
3 0.25 0
3.5 0.25 0
4 0.25 0
4.5 0.25 0
5 0.25 0
0 0.3 0
0.5 0.3 0
1 0.3 0
1.5 0.3 0
2 0.3 0
2.5 0.3 0
3 0.3 0
3.5 0.3 0
4 0.3 0
4.5 0.3 0
5 0.3 0
0 0.35 0
0.5 0.35 0
1 0.35 0
1.5 0.35 0
2 0.35 0
2.5 0.35 0
3 0.35 0
3.5 0.35 0
4 0.35 0
4.5 0.35 0
5 0.35 0
0 0.4 0
0.5 0.4 0
1 0.4 0
1.5 0.4 0
2 0.4 0
2.5 0.4 0
3 0.4 0
3.5 0.4 0
4 0.4 0
4.5 0.4 0
5 0.4 0
0 0.45 0
0.5 0.45 0
1 0.45 0
1.5 0.45 0
2 0.45 0
2.5 0.45 0
3 0.45 0
3.5 0.45 0
4 0.45 0
4.5 0.45 0
5 0.45 0
0 0.5 0
0.5 0.5 0
1 0.5 0
1.5 0.5 0
2 0.5 0
2.5 0.5 0
3 0.5 0
3.5 0.5 0
4 0.5 0
4.5 0.5 0
5 0.5 0
0 0.55 0
0.5 0.55 0
1 0.55 0
1.5 0.55 0
2 0.55 0
2.5 0.55 0
3 0.55 0
3.5 0.55 0
4 0.55 0
4.5 0.55 0
5 0.55 0
0 0.6 0
0.5 0.6 0
1 0.6 0
1.5 0.6 0
2 0.6 0
2.5 0.6 0
3 0.6 0
3.5 0.6 0
4 0.6 0
4.5 0.6 0
5 0.6 0
0 0.65 0
0.5 0.65 0
1 0.65 0
1.5 0.65 0
2 0.65 0
2.5 0.65 0
3 0.65 0
3.5 0.65 0
4 0.65 0
4.5 0.65 0
5 0.65 0
0 0.7 0
0.5 0.7 0
1 0.7 0
1.5 0.7 0
2 0.7 0
2.5 0.7 0
3 0.7 0
3.5 0.7 0
4 0.7 0
4.5 0.7 0
5 0.7 0
0 0.75 0
0.5 0.75 0
1 0.75 0
1.5 0.75 0
2 0.75 0
2.5 0.75 0
3 0.75 0
3.5 0.75 0
4 0.75 0
4.5 0.75 0
5 0.75 0
0 0.8 0
0.5 0.8 0
1 0.8 0
1.5 0.8 0
2 0.8 0
2.5 0.8 0
3 0.8 0
3.5 0.8 0
4 0.8 0
4.5 0.8 0
5 0.8 0
0 0.85 0
0.5 0.85 0
1 0.85 0
1.5 0.85 0
2 0.85 0
2.5 0.85 0
3 0.85 0
3.5 0.85 0
4 0.85 0
4.5 0.85 0
5 0.85 0
0 0.9 0
0.5 0.9 0
1 0.9 0
1.5 0.9 0
2 0.9 0
2.5 0.9 0
3 0.9 0
3.5 0.9 0
4 0.9 0
4.5 0.9 0
5 0.9 0
0 0.95 0
0.5 0.95 0
1 0.95 0
1.5 0.95 0
2 0.95 0
2.5 0.95 0
3 0.95 0
3.5 0.95 0
4 0.95 0
4.5 0.95 0
5 0.95 0
0 1 0
0.5 1 0
1 1 0
1.5 1 0
2 1 0
2.5 1 0
3 1 0
3.5 1 0
4 1 0
4.5 1 0
5 1 0
0 0 0.1
0.5 0 0.1
1 0 0.1
1.5 0 0.1
2 0 0.1
2.5 0 0.1
3 0 0.1
3.5 0 0.1
4 0 0.1
4.5 0 0.1
5 0 0.1
0 0.05 0.1
0.5 0.05 0.1
1 0.05 0.1
1.5 0.05 0.1
2 0.05 0.1
2.5 0.05 0.1
3 0.05 0.1
3.5 0.05 0.1
4 0.05 0.1
4.5 0.05 0.1
5 0.05 0.1
0 0.1 0.1
0.5 0.1 0.1
1 0.1 0.1
1.5 0.1 0.1
2 0.1 0.1
2.5 0.1 0.1
3 0.1 0.1
3.5 0.1 0.1
4 0.1 0.1
4.5 0.1 0.1
5 0.1 0.1
0 0.15 0.1
0.5 0.15 0.1
1 0.15 0.1
1.5 0.15 0.1
2 0.15 0.1
2.5 0.15 0.1
3 0.15 0.1
3.5 0.15 0.1
4 0.15 0.1
4.5 0.15 0.1
5 0.15 0.1
0 0.2 0.1
0.5 0.2 0.1
1 0.2 0.1
1.5 0.2 0.1
2 0.2 0.1
2.5 0.2 0.1
3 0.2 0.1
3.5 0.2 0.1
4 0.2 0.1
4.5 0.2 0.1
5 0.2 0.1
0 0.25 0.1
0.5 0.25 0.1
1 0.25 0.1
1.5 0.25 0.1
2 0.25 0.1
2.5 0.25 0.1
3 0.25 0.1
3.5 0.25 0.1
4 0.25 0.1
4.5 0.25 0.1
5 0.25 0.1
0 0.3 0.1
0.5 0.3 0.1
1 0.3 0.1
1.5 0.3 0.1
2 0.3 0.1
2.5 0.3 0.1
3 0.3 0.1
3.5 0.3 0.1
4 0.3 0.1
4.5 0.3 0.1
5 0.3 0.1
0 0.35 0.1
0.5 0.35 0.1
1 0.35 0.1
1.5 0.35 0.1
2 0.35 0.1
2.5 0.35 0.1
3 0.35 0.1
3.5 0.35 0.1
4 0.35 0.1
4.5 0.35 0.1
5 0.35 0.1
0 0.4 0.1
0.5 0.4 0.1
1 0.4 0.1
1.5 0.4 0.1
2 0.4 0.1
2.5 0.4 0.1
3 0.4 0.1
3.5 0.4 0.1
4 0.4 0.1
4.5 0.4 0.1
5 0.4 0.1
0 0.45 0.1
0.5 0.45 0.1
1 0.45 0.1
1.5 0.45 0.1
2 0.45 0.1
2.5 0.45 0.1
3 0.45 0.1
3.5 0.45 0.1
4 0.45 0.1
4.5 0.45 0.1
5 0.45 0.1
0 0.5 0.1
0.5 0.5 0.1
1 0.5 0.1
1.5 0.5 0.1
2 0.5 0.1
2.5 0.5 0.1
3 0.5 0.1
3.5 0.5 0.1
4 0.5 0.1
4.5 0.5 0.1
5 0.5 0.1
0 0.55 0.1
0.5 0.55 0.1
1 0.55 0.1
1.5 0.55 0.1
2 0.55 0.1
2.5 0.55 0.1
3 0.55 0.1
3.5 0.55 0.1
4 0.55 0.1
4.5 0.55 0.1
5 0.55 0.1
0 0.6 0.1
0.5 0.6 0.1
1 0.6 0.1
1.5 0.6 0.1
2 0.6 0.1
2.5 0.6 0.1
3 0.6 0.1
3.5 0.6 0.1
4 0.6 0.1
4.5 0.6 0.1
5 0.6 0.1
0 0.65 0.1
0.5 0.65 0.1
1 0.65 0.1
1.5 0.65 0.1
2 0.65 0.1
2.5 0.65 0.1
3 0.65 0.1
3.5 0.65 0.1
4 0.65 0.1
4.5 0.65 0.1
5 0.65 0.1
0 0.7 0.1
0.5 0.7 0.1
1 0.7 0.1
1.5 0.7 0.1
2 0.7 0.1
2.5 0.7 0.1
3 0.7 0.1
3.5 0.7 0.1
4 0.7 0.1
4.5 0.7 0.1
5 0.7 0.1
0 0.75 0.1
0.5 0.75 0.1
1 0.75 0.1
1.5 0.75 0.1
2 0.75 0.1
2.5 0.75 0.1
3 0.75 0.1
3.5 0.75 0.1
4 0.75 0.1
4.5 0.75 0.1
5 0.75 0.1
0 0.8 0.1
0.5 0.8 0.1
1 0.8 0.1
1.5 0.8 0.1
2 0.8 0.1
2.5 0.8 0.1
3 0.8 0.1
3.5 0.8 0.1
4 0.8 0.1
4.5 0.8 0.1
5 0.8 0.1
0 0.85 0.1
0.5 0.85 0.1
1 0.85 0.1
1.5 0.85 0.1
2 0.85 0.1
2.5 0.85 0.1
3 0.85 0.1
3.5 0.85 0.1
4 0.85 0.1
4.5 0.85 0.1
5 0.85 0.1
0 0.9 0.1
0.5 0.9 0.1
1 0.9 0.1
1.5 0.9 0.1
2 0.9 0.1
2.5 0.9 0.1
3 0.9 0.1
3.5 0.9 0.1
4 0.9 0.1
4.5 0.9 0.1
5 0.9 0.1
0 0.95 0.1
0.5 0.95 0.1
1 0.95 0.1
1.5 0.95 0.1
2 0.95 0.1
2.5 0.95 0.1
3 0.95 0.1
3.5 0.95 0.1
4 0.95 0.1
4.5 0.95 0.1
5 0.95 0.1
0 1 0.1
0.5 1 0.1
1 1 0.1
1.5 1 0.1
2 1 0.1
2.5 1 0.1
3 1 0.1
3.5 1 0.1
4 1 0.1
4.5 1 0.1
5 1 0.1
0 0 0.2
0.5 0 0.2
1 0 0.2
1.5 0 0.2
2 0 0.2
2.5 0 0.2
3 0 0.2
3.5 0 0.2
4 0 0.2
4.5 0 0.2
5 0 0.2
0 0.05 0.2
0.5 0.05 0.2
1 0.05 0.2
1.5 0.05 0.2
2 0.05 0.2
2.5 0.05 0.2
3 0.05 0.2
3.5 0.05 0.2
4 0.05 0.2
4.5 0.05 0.2
5 0.05 0.2
0 0.1 0.2
0.5 0.1 0.2
1 0.1 0.2
1.5 0.1 0.2
2 0.1 0.2
2.5 0.1 0.2
3 0.1 0.2
3.5 0.1 0.2
4 0.1 0.2
4.5 0.1 0.2
5 0.1 0.2
0 0.15 0.2
0.5 0.15 0.2
1 0.15 0.2
1.5 0.15 0.2
2 0.15 0.2
2.5 0.15 0.2
3 0.15 0.2
3.5 0.15 0.2
4 0.15 0.2
4.5 0.15 0.2
5 0.15 0.2
0 0.2 0.2
0.5 0.2 0.2
1 0.2 0.2
1.5 0.2 0.2
2 0.2 0.2
2.5 0.2 0.2
3 0.2 0.2
3.5 0.2 0.2
4 0.2 0.2
4.5 0.2 0.2
5 0.2 0.2
0 0.25 0.2
0.5 0.25 0.2
1 0.25 0.2
1.5 0.25 0.2
2 0.25 0.2
2.5 0.25 0.2
3 0.25 0.2
3.5 0.25 0.2
4 0.25 0.2
4.5 0.25 0.2
5 0.25 0.2
0 0.3 0.2
0.5 0.3 0.2
1 0.3 0.2
1.5 0.3 0.2
2 0.3 0.2
2.5 0.3 0.2
3 0.3 0.2
3.5 0.3 0.2
4 0.3 0.2
4.5 0.3 0.2
5 0.3 0.2
0 0.35 0.2
0.5 0.35 0.2
1 0.35 0.2
1.5 0.35 0.2
2 0.35 0.2
2.5 0.35 0.2
3 0.35 0.2
3.5 0.35 0.2
4 0.35 0.2
4.5 0.35 0.2
5 0.35 0.2
0 0.4 0.2
0.5 0.4 0.2
1 0.4 0.2
1.5 0.4 0.2
2 0.4 0.2
2.5 0.4 0.2
3 0.4 0.2
3.5 0.4 0.2
4 0.4 0.2
4.5 0.4 0.2
5 0.4 0.2
0 0.45 0.2
0.5 0.45 0.2
1 0.45 0.2
1.5 0.45 0.2
2 0.45 0.2
2.5 0.45 0.2
3 0.45 0.2
3.5 0.45 0.2
4 0.45 0.2
4.5 0.45 0.2
5 0.45 0.2
0 0.5 0.2
0.5 0.5 0.2
1 0.5 0.2
1.5 0.5 0.2
2 0.5 0.2
2.5 0.5 0.2
3 0.5 0.2
3.5 0.5 0.2
4 0.5 0.2
4.5 0.5 0.2
5 0.5 0.2
0 0.55 0.2
0.5 0.55 0.2
1 0.55 0.2
1.5 0.55 0.2
2 0.55 0.2
2.5 0.55 0.2
3 0.55 0.2
3.5 0.55 0.2
4 0.55 0.2
4.5 0.55 0.2
5 0.55 0.2
0 0.6 0.2
0.5 0.6 0.2
1 0.6 0.2
1.5 0.6 0.2
2 0.6 0.2
2.5 0.6 0.2
3 0.6 0.2
3.5 0.6 0.2
4 0.6 0.2
4.5 0.6 0.2
5 0.6 0.2
0 0.65 0.2
0.5 0.65 0.2
1 0.65 0.2
1.5 0.65 0.2
2 0.65 0.2
2.5 0.65 0.2
3 0.65 0.2
3.5 0.65 0.2
4 0.65 0.2
4.5 0.65 0.2
5 0.65 0.2
0 0.7 0.2
0.5 0.7 0.2
1 0.7 0.2
1.5 0.7 0.2
2 0.7 0.2
2.5 0.7 0.2
3 0.7 0.2
3.5 0.7 0.2
4 0.7 0.2
4.5 0.7 0.2
5 0.7 0.2
0 0.75 0.2
0.5 0.75 0.2
1 0.75 0.2
1.5 0.75 0.2
2 0.75 0.2
2.5 0.75 0.2
3 0.75 0.2
3.5 0.75 0.2
4 0.75 0.2
4.5 0.75 0.2
5 0.75 0.2
0 0.8 0.2
0.5 0.8 0.2
1 0.8 0.2
1.5 0.8 0.2
2 0.8 0.2
2.5 0.8 0.2
3 0.8 0.2
3.5 0.8 0.2
4 0.8 0.2
4.5 0.8 0.2
5 0.8 0.2
0 0.85 0.2
0.5 0.85 0.2
1 0.85 0.2
1.5 0.85 0.2
2 0.85 0.2
2.5 0.85 0.2
3 0.85 0.2
3.5 0.85 0.2
4 0.85 0.2
4.5 0.85 0.2
5 0.85 0.2
0 0.9 0.2
0.5 0.9 0.2
1 0.9 0.2
1.5 0.9 0.2
2 0.9 0.2
2.5 0.9 0.2
3 0.9 0.2
3.5 0.9 0.2
4 0.9 0.2
4.5 0.9 0.2
5 0.9 0.2
0 0.95 0.2
0.5 0.95 0.2
1 0.95 0.2
1.5 0.95 0.2
2 0.95 0.2
2.5 0.95 0.2
3 0.95 0.2
3.5 0.95 0.2
4 0.95 0.2
4.5 0.95 0.2
5 0.95 0.2
0 1 0.2
0.5 1 0.2
1 1 0.2
1.5 1 0.2
2 1 0.2
2.5 1 0.2
3 1 0.2
3.5 1 0.2
4 1 0.2
4.5 1 0.2
5 1 0.2
0 0 0.3
0.5 0 0.3
1 0 0.3
1.5 0 0.3
2 0 0.3
2.5 0 0.3
3 0 0.3
3.5 0 0.3
4 0 0.3
4.5 0 0.3
5 0 0.3
0 0.05 0.3
0.5 0.05 0.3
1 0.05 0.3
1.5 0.05 0.3
2 0.05 0.3
2.5 0.05 0.3
3 0.05 0.3
3.5 0.05 0.3
4 0.05 0.3
4.5 0.05 0.3
5 0.05 0.3
0 0.1 0.3
0.5 0.1 0.3
1 0.1 0.3
1.5 0.1 0.3
2 0.1 0.3
2.5 0.1 0.3
3 0.1 0.3
3.5 0.1 0.3
4 0.1 0.3
4.5 0.1 0.3
5 0.1 0.3
0 0.15 0.3
0.5 0.15 0.3
1 0.15 0.3
1.5 0.15 0.3
2 0.15 0.3
2.5 0.15 0.3
3 0.15 0.3
3.5 0.15 0.3
4 0.15 0.3
4.5 0.15 0.3
5 0.15 0.3
0 0.2 0.3
0.5 0.2 0.3
1 0.2 0.3
1.5 0.2 0.3
2 0.2 0.3
2.5 0.2 0.3
3 0.2 0.3
3.5 0.2 0.3
4 0.2 0.3
4.5 0.2 0.3
5 0.2 0.3
0 0.25 0.3
0.5 0.25 0.3
1 0.25 0.3
1.5 0.25 0.3
2 0.25 0.3
2.5 0.25 0.3
3 0.25 0.3
3.5 0.25 0.3
4 0.25 0.3
4.5 0.25 0.3
5 0.25 0.3
0 0.3 0.3
0.5 0.3 0.3
1 0.3 0.3
1.5 0.3 0.3
2 0.3 0.3
2.5 0.3 0.3
3 0.3 0.3
3.5 0.3 0.3
4 0.3 0.3
4.5 0.3 0.3
5 0.3 0.3
0 0.35 0.3
0.5 0.35 0.3
1 0.35 0.3
1.5 0.35 0.3
2 0.35 0.3
2.5 0.35 0.3
3 0.35 0.3
3.5 0.35 0.3
4 0.35 0.3
4.5 0.35 0.3
5 0.35 0.3
0 0.4 0.3
0.5 0.4 0.3
1 0.4 0.3
1.5 0.4 0.3
2 0.4 0.3
2.5 0.4 0.3
3 0.4 0.3
3.5 0.4 0.3
4 0.4 0.3
4.5 0.4 0.3
5 0.4 0.3
0 0.45 0.3
0.5 0.45 0.3
1 0.45 0.3
1.5 0.45 0.3
2 0.45 0.3
2.5 0.45 0.3
3 0.45 0.3
3.5 0.45 0.3
4 0.45 0.3
4.5 0.45 0.3
5 0.45 0.3
0 0.5 0.3
0.5 0.5 0.3
1 0.5 0.3
1.5 0.5 0.3
2 0.5 0.3
2.5 0.5 0.3
3 0.5 0.3
3.5 0.5 0.3
4 0.5 0.3
4.5 0.5 0.3
5 0.5 0.3
0 0.55 0.3
0.5 0.55 0.3
1 0.55 0.3
1.5 0.55 0.3
2 0.55 0.3
2.5 0.55 0.3
3 0.55 0.3
3.5 0.55 0.3
4 0.55 0.3
4.5 0.55 0.3
5 0.55 0.3
0 0.6 0.3
0.5 0.6 0.3
1 0.6 0.3
1.5 0.6 0.3
2 0.6 0.3
2.5 0.6 0.3
3 0.6 0.3
3.5 0.6 0.3
4 0.6 0.3
4.5 0.6 0.3
5 0.6 0.3
0 0.65 0.3
0.5 0.65 0.3
1 0.65 0.3
1.5 0.65 0.3
2 0.65 0.3
2.5 0.65 0.3
3 0.65 0.3
3.5 0.65 0.3
4 0.65 0.3
4.5 0.65 0.3
5 0.65 0.3
0 0.7 0.3
0.5 0.7 0.3
1 0.7 0.3
1.5 0.7 0.3
2 0.7 0.3
2.5 0.7 0.3
3 0.7 0.3
3.5 0.7 0.3
4 0.7 0.3
4.5 0.7 0.3
5 0.7 0.3
0 0.75 0.3
0.5 0.75 0.3
1 0.75 0.3
1.5 0.75 0.3
2 0.75 0.3
2.5 0.75 0.3
3 0.75 0.3
3.5 0.75 0.3
4 0.75 0.3
4.5 0.75 0.3
5 0.75 0.3
0 0.8 0.3
0.5 0.8 0.3
1 0.8 0.3
1.5 0.8 0.3
2 0.8 0.3
2.5 0.8 0.3
3 0.8 0.3
3.5 0.8 0.3
4 0.8 0.3
4.5 0.8 0.3
5 0.8 0.3
0 0.85 0.3
0.5 0.85 0.3
1 0.85 0.3
1.5 0.85 0.3
2 0.85 0.3
2.5 0.85 0.3
3 0.85 0.3
3.5 0.85 0.3
4 0.85 0.3
4.5 0.85 0.3
5 0.85 0.3
0 0.9 0.3
0.5 0.9 0.3
1 0.9 0.3
1.5 0.9 0.3
2 0.9 0.3
2.5 0.9 0.3
3 0.9 0.3
3.5 0.9 0.3
4 0.9 0.3
4.5 0.9 0.3
5 0.9 0.3
0 0.95 0.3
0.5 0.95 0.3
1 0.95 0.3
1.5 0.95 0.3
2 0.95 0.3
2.5 0.95 0.3
3 0.95 0.3
3.5 0.95 0.3
4 0.95 0.3
4.5 0.95 0.3
5 0.95 0.3
0 1 0.3
0.5 1 0.3
1 1 0.3
1.5 1 0.3
2 1 0.3
2.5 1 0.3
3 1 0.3
3.5 1 0.3
4 1 0.3
4.5 1 0.3
5 1 0.3
0 0 0.4
[...]
CELL_DATA 2000
SCALARS pressure float 1
LOOKUP_TABLE default
0
0
0.902484
0.989286
0.810585
0.651692
0.497491
0.344509
0.191079
0.0241319
0
0
0.900308
0.981769
0.809938
0.65156
0.49746
0.344504
0.191097
0.0265577
0
0
0.864062
0.977318
0.808991
0.651367
0.497415
0.344498
0.191177
0.0288469
0
0
0.851589
0.967338
0.807845
0.651129
0.497357
0.344492
0.191292
0.0307651
1.50267
1.63509
0.858509
0.958127
0.806532
0.650854
0.49729
0.344485
0.191419
0.0323222
1.4993
1.62891
0.883568
0.950691
0.805163
0.650553
0.497215
0.344475
0.191543
0.0335593
1.49181
1.61859
0.914181
0.945403
0.803828
0.650234
0.497132
0.344464
0.191652
0.0345101
1.48098
1.60594
0.948549
0.942027
0.802586
0.649907
0.497045
0.344448
0.191739
0.0352007
1.46956
1.59263
0.981288
0.940176
0.801473
0.64958
0.496955
0.34443
0.191797
0.0356503
1.45946
1.5798
1.01093
0.939438
0.800495
0.64926
0.496863
0.344408
0.191823
0.0358713
1.45141
1.568
1.03709
0.939475
0.799647
0.64895
0.496771
0.344382
0.191817
0.0358701
1.44583
1.5575
1.05971
0.940014
0.798913
0.648655
0.496681
0.344354
0.191777
0.0356465
1.44318
1.54841
1.07891
0.940829
0.798278
0.648378
0.496594
0.344323
0.191705
0.0351946
1.44354
1.54074
1.09487
0.941736
0.797725
0.64812
0.496512
0.344291
0.191607
0.0345017
1.44674
1.53448
1.10779
0.942589
0.797235
0.647883
0.496435
0.34426
0.191486
0.0335488
1.45258
1.52958
1.11789
0.943272
0.796792
0.647669
0.496366
0.344229
0.191352
0.0323097
1.46054
1.52603
1.12537
0.943697
0.796383
0.647478
0.496304
0.344202
0.191216
0.0307508
1.46885
1.52373
1.13042
0.943802
0.795999
0.647312
0.496252
0.344179
0.191093
0.0288312
1.47478
1.52277
1.13324
0.943581
0.795644
0.647174
0.496211
0.344162
0.191008
0.0265408
1.47747
1.52293
1.13379
0.943076
0.795347
0.647075
0.496183
0.344153
0.190986
0.0241142
0
0
0.91197
0.985993
0.81044
0.65164
0.497478
0.34452
0.191269
0.028477
0
0
0.908029
0.979372
0.809551
0.651472
0.497441
0.344513
0.191282
0.0319523
0
0
0.873458
0.975161
0.808618
0.651276
0.497395
0.344507
0.191397
0.0344057
0
0
0.882438
0.967881
0.807451
0.65104
0.497338
0.344502
0.191531
0.0363603
1.48699
1.64089
0.8266
0.957617
0.806156
0.650774
0.497273
0.344496
0.191668
0.037943
1.48296
1.6545
0.84465
0.94793
0.804811
0.650483
0.4972
0.344488
0.191799
0.0391977
1.47614
1.63855
0.888309
0.942622
0.803533
0.650179
0.497121
0.344478
0.191912
0.0401605
1.4673
1.61917
0.930379
0.940071
0.80237
0.649868
0.497037
0.344464
0.192001
0.0408589
1.45726
1.60141
0.969274
0.938903
0.801338
0.649556
0.496951
0.344447
0.19206
0.0413132
1.44739
1.58556
1.00332
0.938674
0.800434
0.649251
0.496863
0.344426
0.192088
0.0415365
1.43955
1.57156
1.03244
0.939091
0.799649
0.648957
0.496775
0.344401
0.192081
0.0415353
1.43415
1.55949
1.05706
0.939909
0.798971
0.648676
0.496688
0.344373
0.192041
0.0413096
1.43135
1.54934
1.07761
0.940929
0.798384
0.648412
0.496605
0.344343
0.191968
0.040853
1.43122
1.54101
1.09447
0.941986
0.79787
0.648167
0.496525
0.344312
0.191868
0.0401524
1.43395
1.53431
1.10796
0.942949
0.797413
0.647941
0.496452
0.34428
0.191743
0.0391876
1.43938
1.52893
1.11837
0.943711
0.796997
0.647735
0.496384
0.344249
0.191603
0.037931
1.44588
1.52467
1.12596
0.944195
0.796609
0.64755
0.496324
0.344222
0.191457
0.0363466
1.45228
1.52161
1.13096
0.944342
0.796242
0.647389
0.496273
0.344198
0.191316
0.0343906
1.4578
1.52016
1.1336
0.944095
0.79588
0.647248
0.496231
0.344181
0.191195
0.031936
1.46188
1.52122
1.13391
0.943394
0.795506
0.647126
0.496198
0.344171
0.191178
0.0284598
0
0
0.922691
0.985701
0.810435
0.651599
0.497467
0.344542
0.191568
0.0317541
0
0
0.917916
0.979989
0.80953
0.651426
0.497428
0.344535
0.191591
0.0354028
0
0
0.889379
0.976859
0.808632
0.651228
0.497382
0.344531
0.191719
0.0379557
0
0
0.900071
0.971154
0.807533
0.650998
0.497326
0.344527
0.191865
0.0399733
1.47115
1.63619
0.817165
0.961244
0.806282
0.650737
0.497263
0.344522
0.192012
0.0415966
1.46664
1.6725
0.803263
0.949498
0.804915
0.650453
0.497192
0.344515
0.192149
0.0428783
1.46238
1.6702
0.847121
0.941162
0.803548
0.650154
0.497115
0.344506
0.192267
0.0438589
1.46123
1.6465
0.904233
0.937482
0.802308
0.649849
0.497034
0.344493
0.192359
0.0445689
1.46173
1.62035
0.952195
0.936619
0.80125
0.649545
0.49695
0.344477
0.192421
0.0450302
1.46209
1.5972
0.992041
0.936931
0.800357
0.649248
0.496864
0.344457
0.192449
0.0452567
1.46134
1.57789
1.02533
0.93783
0.7996
0.648963
0.496779
0.344433
0.192443
0.0452556
1.45915
1.56235
1.05295
0.939044
0.798955
0.648691
0.496695
0.344405
0.192402
0.0450267
1.4562
1.55024
1.07565
0.940381
0.798401
0.648436
0.496614
0.344376
0.192328
0.0445632
1.45248
1.54117
1.09402
0.94169
0.79792
0.648199
0.496537
0.344344
0.192224
0.0438511
1.44764
1.53464
1.10855
0.942852
0.797491
0.64798
0.496465
0.344313
0.192095
0.0428685
1.44237
1.52994
1.1195
0.943775
0.797102
0.647781
0.4964
0.344282
0.191948
0.041585
1.43814
1.52606
1.12714
0.944386
0.79674
0.647602
0.496341
0.344253
0.191793
0.0399601
1.4372
1.5227
1.13191
0.944611
0.79639
0.647443
0.496291
0.344229
0.19164
0.0379411
1.44075
1.52077
1.13433
0.944381
0.796029
0.647302
0.496248
0.34421
0.191505
0.035387
1.44578
1.52178
1.13453
0.943652
0.795641
0.647175
0.496213
0.344199
0.191478
0.0317373
0
0
0.927727
0.986575
0.810511
0.651579
0.497461
0.344564
0.191827
0.0338167
0
0
0.922975
0.981168
0.809617
0.651405
0.497422
0.344558
0.191854
0.0375016
0
0
0.894254
0.978621
0.808751
0.651209
0.497375
0.344554
0.191988
0.0400912
0
0
0.900844
0.973637
0.807703
0.650983
0.497321
0.344551
0.192139
0.0421394
1.46316
1.64659
0.813879
0.964064
0.806503
0.650728
0.497258
0.344547
0.192292
0.0437863
1.45922
1.68789
0.786615
0.951912
0.805164
0.65045
0.497188
0.344541
0.192433
0.0450859
1.45803
1.69197
0.814671
0.942051
0.803752
0.650154
0.497113
0.344533
0.192554
0.0460794
1.46445
1.66915
0.874186
0.936677
0.802407
0.649849
0.497033
0.344521
0.192649
0.0467983
1.47756
1.63746
0.933177
0.93508
0.801249
0.649545
0.49695
0.344505
0.192712
0.0472651
1.49252
1.60703
0.980586
0.935337
0.800297
0.649249
0.496866
0.344485
0.192741
0.0474943
1.50362
1.58042
1.01841
0.936382
0.799512
0.648964
0.496783
0.344462
0.192735
0.0474932
1.50768
1.55923
1.04924
0.937801
0.79886
0.648695
0.4967
0.344435
0.192693
0.0472617
1.50468
1.54453
1.07437
0.939368
0.798312
0.648443
0.496621
0.344405
0.192618
0.0467927
1.49449
1.53593
1.09435
0.940934
0.797849
0.64821
0.496545
0.344374
0.192512
0.0460718
1.47733
1.5315
1.10954
0.942373
0.797456
0.647997
0.496475
0.344342
0.19238
0.0450763
1.45689
1.52884
1.12055
0.943546
0.797109
0.647804
0.49641
0.344311
0.192229
0.043775
1.43986
1.52649
1.12807
0.944333
0.796781
0.647629
0.496352
0.344282
0.192068
0.0421264
1.43161
1.52398
1.13272
0.944658
0.79645
0.647474
0.496302
0.344257
0.191909
0.0400769
1.43248
1.52216
1.13502
0.944474
0.7961
0.647334
0.49626
0.344238
0.191769
0.0374861
1.43722
1.52319
1.13515
0.943759
0.795714
0.647207
0.496225
0.344226
0.191738
0.0338002
0
0
0.928799
0.987209
0.810577
0.651571
0.497458
0.344578
0.191973
0.0348039
0
0
0.923616
0.981906
0.80969
0.651398
0.497419
0.344572
0.192001
0.0384978
0
0
0.893719
0.979578
0.808839
0.651203
0.497373
0.344568
0.192136
0.0410995
0
0
0.898638
0.974863
0.807815
0.650979
0.497318
0.344566
0.19229
0.0431595
1.46038
1.65472
0.810175
0.965458
0.80664
0.650728
0.497256
0.344562
0.192445
0.0448166
1.45695
1.69743
0.780878
0.953267
0.805322
0.650452
0.497187
0.344557
0.192588
0.0461244
1.45825
1.70289
0.804335
0.943169
0.803919
0.65016
0.497113
0.344549
0.192711
0.0471241
1.47008
1.6802
0.858409
0.937265
0.802554
0.649858
0.497034
0.344537
0.192807
0.0478475
1.49079
1.6464
0.918176
0.934899
0.801331
0.649553
0.496952
0.344522
0.192871
0.0483172
1.51449
1.61201
0.971102
0.934571
0.800293
0.649252
0.496868
0.344502
0.192901
0.0485478
1.53388
1.58106
1.01419
0.935357
0.799439
0.648963
0.496785
0.344479
0.192894
0.0485467
1.54261
1.55608
1.04817
0.936773
0.798749
0.648691
0.496703
0.344452
0.192852
0.0483138
1.5395
1.53965
1.07461
0.938522
0.798203
0.64844
0.496624
0.344423
0.192776
0.047842
1.52442
1.53157
1.09487
0.940349
0.797772
0.648211
0.496549
0.344391
0.192669
0.0471166
1.49872
1.5286
1.11006
0.942017
0.797415
0.648002
0.496479
0.344359
0.192535
0.0461149
1.46934
1.52765
1.12107
0.943354
0.797095
0.647813
0.496415
0.344328
0.192382
0.0448054
1.44466
1.52659
1.12858
0.944248
0.796786
0.647641
0.496358
0.344299
0.192219
0.0431467
1.43112
1.52478
1.13317
0.944637
0.796469
0.647487
0.496308
0.344274
0.192058
0.0410853
1.42969
1.52315
1.13541
0.944487
0.796125
0.647348
0.496266
0.344254
0.191917
0.0384824
1.43406
1.52425
1.13553
0.943785
0.795742
0.647222
0.496231
0.344242
0.191885
0.0347876
0
0
0.928799
0.987209
0.810577
0.651571
0.497458
0.344578
0.191973
0.0348039
0
0
0.923616
0.981906
0.80969
0.651398
0.497419
0.344572
0.192001
0.0384978
0
0
0.893719
0.979578
0.808839
0.651203
0.497373
0.344568
0.192136
0.0410995
0
0
0.898638
0.974863
0.807815
0.650979
0.497318
0.344566
0.19229
0.0431595
1.46038
1.65472
0.810175
0.965458
0.80664
0.650728
0.497256
0.344562
0.192445
0.0448166
1.45695
1.69743
0.780878
0.953267
0.805322
0.650452
0.497187
0.344557
0.192588
0.0461244
1.45825
1.70289
0.804335
0.943169
0.803919
0.65016
0.497113
0.344549
0.192711
0.0471241
1.47008
1.6802
0.858409
0.937265
0.802554
0.649858
0.497034
0.344537
0.192807
0.0478475
1.49079
1.6464
0.918176
0.934899
0.801331
0.649553
0.496952
0.344522
0.192871
0.0483172
1.51449
1.61201
0.971102
0.934571
0.800293
0.649252
0.496868
0.344502
0.192901
0.0485478
1.53388
1.58106
1.01419
0.935357
0.799439
0.648963
0.496785
0.344479
0.192894
0.0485467
1.54261
1.55608
1.04817
0.936773
0.798749
0.648691
0.496703
0.344452
0.192852
0.0483138
1.5395
1.53965
1.07461
0.938522
0.798203
0.64844
0.496624
0.344423
0.192776
0.047842
1.52442
1.53157
1.09487
0.940349
0.797772
0.648211
0.496549
0.344391
0.192669
0.0471166
1.49872
1.5286
1.11006
0.942017
0.797415
0.648002
0.496479
0.344359
0.192535
0.0461149
1.46934
1.52765
1.12107
0.943354
0.797095
0.647813
0.496415
0.344328
0.192382
0.0448054
1.44466
1.52659
1.12858
0.944248
0.796786
0.647641
0.496358
0.344299
0.192219
0.0431467
1.43112
1.52478
1.13317
0.944637
0.796469
0.647487
0.496308
0.344274
0.192058
0.0410853
1.42969
1.52315
1.13541
0.944487
0.796125
0.647348
0.496266
0.344254
0.191917
0.0384824
1.43406
1.52425
1.13553
0.943785
0.795742
0.647222
0.496231
0.344242
0.191885
0.0347876
0
0
0.927727
0.986575
0.810511
0.651579
0.497461
0.344564
0.191827
0.0338167
0
0
0.922975
0.981168
0.809617
0.651405
0.497422
0.344558
0.191854
0.0375016
0
0
0.894254
0.978621
0.808751
0.651209
0.497375
0.344554
0.191988
0.0400912
0
0
0.900844
0.973637
0.807703
0.650983
0.497321
0.344551
0.192139
0.0421394
1.46316
1.64659
0.813879
0.964064
0.806503
0.650728
0.497258
0.344547
0.192292
0.0437863
1.45922
1.68789
0.786615
0.951912
0.805164
0.65045
0.497188
0.344541
0.192433
0.0450859
1.45803
1.69197
0.814671
0.942051
0.803752
0.650154
0.497113
0.344533
0.192554
0.0460794
1.46445
1.66915
0.874186
0.936677
0.802407
0.649849
0.497033
0.344521
0.192649
0.0467983
1.47756
1.63746
0.933177
0.93508
0.801249
0.649545
0.49695
0.344505
0.192712
0.0472651
1.49252
1.60703
0.980586
0.935337
0.800297
0.649249
0.496866
0.344485
0.192741
0.0474943
1.50362
1.58042
1.01841
0.936382
0.799512
0.648964
0.496783
0.344462
0.192735
0.0474932
1.50768
1.55923
1.04924
0.937801
0.79886
0.648695
0.4967
0.344435
0.192693
0.0472617
1.50468
1.54453
1.07437
0.939368
0.798312
0.648443
0.496621
0.344405
0.192618
0.0467927
1.49449
1.53593
1.09435
0.940934
0.797849
0.64821
0.496545
0.344374
0.192512
0.0460718
1.47733
1.5315
1.10954
0.942373
0.797456
0.647997
0.496475
0.344342
0.19238
0.0450763
1.45689
1.52884
1.12055
0.943546
0.797109
0.647804
0.49641
0.344311
0.192229
0.043775
1.43986
1.52649
1.12807
0.944333
0.796781
0.647629
0.496352
0.344282
0.192068
0.0421264
1.43161
1.52398
1.13272
0.944658
0.79645
0.647474
0.496302
0.344257
0.191909
0.0400769
1.43248
1.52216
1.13502
0.944474
0.7961
0.647334
0.49626
0.344238
0.191769
0.0374861
1.43722
1.52319
1.13515
0.943759
0.795714
0.647207
0.496225
0.344226
0.191738
0.0338002
0
0
0.922691
0.985701
0.810435
0.651599
0.497467
0.344542
0.191568
0.0317541
0
0
0.917916
0.979989
0.80953
0.651426
0.497428
0.344535
0.191591
0.0354028
0
0
0.889379
0.976859
0.808632
0.651228
0.497382
0.344531
0.191719
0.0379557
0
0
0.900071
0.971154
0.807533
0.650998
0.497326
0.344527
0.191865
0.0399733
1.47115
1.63619
0.817165
0.961244
0.806282
0.650737
0.497263
0.344522
0.192012
0.0415966
1.46664
1.6725
0.803263
0.949498
0.804915
0.650453
0.497192
0.344515
0.192149
0.0428783
1.46238
1.6702
0.847121
0.941162
0.803548
0.650154
0.497115
0.344506
0.192267
0.0438589
1.46123
1.6465
0.904233
0.937482
0.802308
0.649849
0.497034
0.344493
0.192359
0.0445689
1.46173
1.62035
0.952195
0.936619
0.80125
0.649545
0.49695
0.344477
0.192421
0.0450302
1.46209
1.5972
0.992041
0.936931
0.800357
0.649248
0.496864
0.344457
0.192449
0.0452567
1.46134
1.57789
1.02533
0.93783
0.7996
0.648963
0.496779
0.344433
0.192443
0.0452556
1.45915
1.56235
1.05295
0.939044
0.798955
0.648691
0.496695
0.344405
0.192402
0.0450267
1.4562
1.55024
1.07565
0.940381
0.798401
0.648436
0.496614
0.344376
0.192328
0.0445632
1.45248
1.54117
1.09402
0.94169
0.79792
0.648199
0.496537
0.344344
0.192224
0.0438511
1.44764
1.53464
1.10855
0.942852
0.797491
0.64798
0.496465
0.344313
0.192095
0.0428685
1.44237
1.52994
1.1195
0.943775
0.797102
0.647781
0.4964
0.344282
0.191948
0.041585
1.43814
1.52606
1.12714
0.944386
0.79674
0.647602
0.496341
0.344253
0.191793
0.0399601
1.4372
1.5227
1.13191
0.944611
0.79639
0.647443
0.496291
0.344229
0.19164
0.0379411
1.44075
1.52077
1.13433
0.944381
0.796029
0.647302
0.496248
0.34421
0.191505
0.035387
1.44578
1.52178
1.13453
0.943652
0.795641
0.647175
0.496213
0.344199
0.191478
0.0317373
0
0
0.91197
0.985993
0.81044
0.65164
0.497478
0.34452
0.191269
0.028477
0
0
0.908029
0.979372
0.809551
0.651472
0.497441
0.344513
0.191282
0.0319523
0
0
0.873458
0.975161
0.808618
0.651276
0.497395
0.344507
0.191397
0.0344057
0
0
0.882438
0.967881
0.807451
0.65104
0.497338
0.344502
0.191531
0.0363603
1.48699
1.64089
0.8266
0.957617
0.806156
0.650774
0.497273
0.344496
0.191668
0.037943
1.48296
1.6545
0.84465
0.94793
0.804811
0.650483
0.4972
0.344488
0.191799
0.0391977
1.47614
1.63855
0.888309
0.942622
0.803533
0.650179
0.497121
0.344478
0.191912
0.0401605
1.4673
1.61917
0.930379
0.940071
0.80237
0.649868
0.497037
0.344464
0.192001
0.0408589
1.45726
1.60141
0.969274
0.938903
0.801338
0.649556
0.496951
0.344447
0.19206
0.0413132
1.44739
1.58556
1.00332
0.938674
0.800434
0.649251
0.496863
0.344426
0.192088
0.0415365
1.43955
1.57156
1.03244
0.939091
0.799649
0.648957
0.496775
0.344401
0.192081
0.0415353
1.43415
1.55949
1.05706
0.939909
0.798971
0.648676
0.496688
0.344373
0.192041
0.0413096
1.43135
1.54934
1.07761
0.940929
0.798384
0.648412
0.496605
0.344343
0.191968
0.040853
1.43122
1.54101
1.09447
0.941986
0.79787
0.648167
0.496525
0.344312
0.191868
0.0401524
1.43395
1.53431
1.10796
0.942949
0.797413
0.647941
0.496452
0.34428
0.191743
0.0391876
1.43938
1.52893
1.11837
0.943711
0.796997
0.647735
0.496384
0.344249
0.191603
0.037931
1.44588
1.52467
1.12596
0.944195
0.796609
0.64755
0.496324
0.344222
0.191457
0.0363466
1.45228
1.52161
1.13096
0.944342
0.796242
0.647389
0.496273
0.344198
0.191316
0.0343906
1.4578
1.52016
1.1336
0.944095
0.79588
0.647248
0.496231
0.344181
0.191195
0.031936
1.46188
1.52122
1.13391
0.943394
0.795506
0.647126
0.496198
0.344171
0.191178
0.0284598
0
0
0.902484
0.989286
0.810585
0.651692
0.497491
0.344509
0.191079
0.0241319
0
0
0.900308
0.981769
0.809938
0.65156
0.49746
0.344504
0.191097
0.0265577
0
0
0.864062
0.977318
0.808991
0.651367
0.497415
0.344498
0.191177
0.0288469
0
0
0.851589
0.967338
0.807845
0.651129
0.497357
0.344492
0.191292
0.0307651
1.50267
1.63509
0.858509
0.958127
0.806532
0.650854
0.49729
0.344485
0.191419
0.0323222
1.4993
1.62891
0.883568
0.950691
0.805163
0.650553
0.497215
0.344475
0.191543
0.0335593
1.49181
1.61859
0.914181
0.945403
0.803828
0.650234
0.497132
0.344464
0.191652
0.0345101
1.48098
1.60594
0.948549
0.942027
0.802586
0.649907
0.497045
0.344448
0.191739
0.0352007
1.46956
1.59263
0.981288
0.940176
0.801473
0.64958
0.496955
0.34443
0.191797
0.0356503
1.45946
1.5798
1.01093
0.939438
0.800495
0.64926
0.496863
0.344408
0.191823
0.0358713
1.45141
1.568
1.03709
0.939475
0.799647
0.64895
0.496771
0.344382
0.191817
0.0358701
1.44583
1.5575
1.05971
0.940014
0.798913
0.648655
0.496681
0.344354
0.191777
0.0356465
1.44318
1.54841
1.07891
0.940829
0.798278
0.648378
0.496594
0.344323
0.191705
0.0351946
1.44354
1.54074
1.09487
0.941736
0.797725
0.64812
0.496512
0.344291
0.191607
0.0345017
1.44674
1.53448
1.10779
0.942589
0.797235
0.647883
0.496435
0.34426
0.191486
0.0335488
1.45258
1.52958
1.11789
0.943272
0.796792
0.647669
0.496366
0.344229
0.191352
0.0323097
1.46054
1.52603
1.12537
0.943697
0.796383
0.647478
0.496304
0.344202
0.191216
0.0307508
1.46885
1.52373
1.13042
0.943802
0.795999
0.647312
0.496252
0.344179
0.191093
0.0288312
1.47478
1.52277
1.13324
0.943581
0.795644
0.647174
0.496211
0.344162
0.191008
0.0265408
1.47747
1.52293
1.13379
0.943076
0.795347
0.647075
0.496183
0.344153
0.190986
0.0241142

VECTORS velocity float
0 0 0
0 0 0
0.765627 -0.0318832 -0.00132952
0.674828 -0.00282283 0.000898335
0.70518 -0.000715231 0.0001073
0.713285 -0.000160028 2.22969e-05
0.715109 -3.59943e-05 4.85149e-06
0.715552 -9.56103e-06 -2.30363e-06
0.716004 -1.32965e-05 -4.23575e-05
0.734911 -0.00129369 -0.00112505
0 0 0
0 0 0
-0.127202 -0.0945365 -0.000987652
0.688496 -0.0123069 0.000705693
0.760624 -0.00240367 0.000137687
0.7715 -0.000517862 2.91701e-05
0.773741 -0.00011601 6.29406e-06
0.774277 -3.0734e-05 -2.10441e-06
0.774938 -5.73074e-05 -4.55447e-05
0.781673 -0.00253103 -0.00135273
0 0 0
0 0 0
0.787035 -0.16019 0.000321187
0.726389 -0.0224491 0.000603921
0.766283 -0.0042475 0.000120306
0.77617 -0.000907986 2.82216e-05
0.778353 -0.000203247 6.2402e-06
0.778876 -5.34688e-05 -2.25675e-06
0.779451 -0.000108465 -4.95767e-05
0.784841 -0.00227432 -0.0013882
0 0 0
0 0 0
-0.112773 -0.227952 0.000413864
0.706296 -0.0312617 0.000119888
0.76704 -0.00597114 0.000100995
0.776721 -0.00127889 2.60174e-05
0.778748 -0.000286553 5.80847e-06
0.779232 -7.45053e-05 -2.49861e-06
0.779701 -0.00013846 -5.24621e-05
0.785158 -0.0018824 -0.00140301
0.416249 -0.0175072 -0.0378886
0.829755 0.00717145 -0.0242066
0.791446 -0.257808 0.0114235
0.733262 -0.0400124 0.00100823
0.768996 -0.00754098 0.00011633
0.777041 -0.00161511 2.36826e-05
0.77883 -0.00036235 5.16431e-06
0.779258 -9.27971e-05 -2.76866e-06
0.779639 -0.000149281 -5.40067e-05
0.785262 -0.00151941 -0.00141096
0.492622 -0.0470052 -0.0454863
0.959909 0.0138809 -0.0230657
0.910696 -0.245205 0.0146675
0.753761 -0.0454099 0.00151215
0.771083 -0.00882728 0.000119667
0.777402 -0.00190519 2.03817e-05
0.778907 -0.000428418 4.33625e-06
0.779271 -0.000107809 -3.06457e-06
0.779577 -0.000145503 -5.49716e-05
0.785339 -0.00119378 -0.00141598
0.538359 -0.0644171 -0.0517417
0.967939 0.0112293 -0.0189527
0.923785 -0.224322 0.00956181
0.766224 -0.0482911 0.00115466
0.773163 -0.00981245 9.4077e-05
0.77781 -0.00214159 1.58992e-05
0.778995 -0.000482999 3.36479e-06
0.779285 -0.000119213 -3.37125e-06
0.77953 -0.000130668 -5.55914e-05
0.785399 -0.000898847 -0.00141918
0.576529 -0.0696393 -0.0572563
0.963247 0.00690746 -0.0162205
0.922541 -0.201389 0.00536184
0.776228 -0.049243 0.000735153
0.775313 -0.0104874 6.51856e-05
0.778254 -0.00231859 1.11083e-05
0.779092 -0.000524695 2.30463e-06
0.779303 -0.000126842 -3.67896e-06
0.779497 -0.000107648 -5.59954e-05
0.785443 -0.000627343 -0.00142118
0.607538 -0.0646498 -0.0619541
0.958164 0.00329449 -0.0147911
0.920147 -0.178532 0.00290487
0.784996 -0.048671 0.000431099
0.777487 -0.0108516 3.75735e-05
0.778723 -0.00243234 6.24322e-06
0.779196 -0.000552481 1.19433e-06
0.779323 -0.000130668 -3.98004e-06
0.779478 -7.88524e-05 -5.62551e-05
0.785473 -0.000372244 -0.00142235
0.63129 -0.0515288 -0.0657681
0.953651 0.0011821 -0.0141016
0.917836 -0.156719 0.00135394
0.792648 -0.0469043 0.000219364