# vtk DataFile Version 2.0
TestTestTest
ASCII

DATASET STRUCTURED_GRID
DIMENSIONS 11 21 11
POINTS 2541 float
0 0 0
0.5 0 0
1 0 0
1.5 0 0
2 0 0
2.5 0 0
3 0 0
3.5 0 0
4 0 0
4.5 0 0
5 0 0
0 0.05 0
0.5 0.05 0
1 0.05 0
1.5 0.05 0
2 0.05 0
2.5 0.05 0
3 0.05 0
3.5 0.05 0
4 0.05 0
4.5 0.05 0
5 0.05 0
0 0.1 0
0.5 0.1 0
1 0.1 0
1.5 0.1 0
2 0.1 0
2.5 0.1 0
3 0.1 0
3.5 0.1 0
4 0.1 0
4.5 0.1 0
5 0.1 0
0 0.15 0
0.5 0.15 0
1 0.15 0
1.5 0.15 0
2 0.15 0
2.5 0.15 0
3 0.15 0
3.5 0.15 0
4 0.15 0
4.5 0.15 0
5 0.15 0
0 0.2 0
0.5 0.2 0
1 0.2 0
1.5 0.2 0
2 0.2 0
2.5 0.2 0
3 0.2 0
3.5 0.2 0
4 0.2 0
4.5 0.2 0
5 0.2 0
0 0.25 0
0.5 0.25 0
1 0.25 0
1.5 0.25 0
2 0.25 0
2.5 0.25 0
3 0.25 0
3.5 0.25 0
4 0.25 0
4.5 0.25 0
5 0.25 0
0 0.3 0
0.5 0.3 0
1 0.3 0
1.5 0.3 0
2 0.3 0
2.5 0.3 0
3 0.3 0
3.5 0.3 0
4 0.3 0
4.5 0.3 0
5 0.3 0
0 0.35 0
0.5 0.35 0
1 0.35 0
1.5 0.35 0
2 0.35 0
2.5 0.35 0
3 0.35 0
3.5 0.35 0
4 0.35 0
4.5 0.35 0
5 0.35 0
0 0.4 0
0.5 0.4 0
1 0.4 0
1.5 0.4 0
2 0.4 0
2.5 0.4 0
3 0.4 0
3.5 0.4 0
4 0.4 0
4.5 0.4 0
5 0.4 0
0 0.45 0
0.5 0.45 0
1 0.45 0
1.5 0.45 0
2 0.45 0
2.5 0.45 0
3 0.45 0
3.5 0.45 0
4 0.45 0
4.5 0.45 0
5 0.45 0
0 0.5 0
0.5 0.5 0
1 0.5 0
1.5 0.5 0
2 0.5 0
2.5 0.5 0
3 0.5 0
3.5 0.5 0
4 0.5 0
4.5 0.5 0
5 0.5 0
0 0.55 0
0.5 0.55 0
1 0.55 0
1.5 0.55 0
2 0.55 0
2.5 0.55 0
3 0.55 0
3.5 0.55 0
4 0.55 0
4.5 0.55 0
5 0.55 0
0 0.6 0
0.5 0.6 0
1 0.6 0
1.5 0.6 0
2 0.6 0
2.5 0.6 0
3 0.6 0
3.5 0.6 0
4 0.6 0
4.5 0.6 0
5 0.6 0
0 0.65 0
0.5 0.65 0
1 0.65 0
1.5 0.65 0
2 0.65 0
2.5 0.65 0
3 0.65 0
3.5 0.65 0
4 0.65 0
4.5 0.65 0
5 0.65 0
0 0.7 0
0.5 0.7 0
1 0.7 0
1.5 0.7 0
2 0.7 0
2.5 0.7 0
3 0.7 0
3.5 0.7 0
4 0.7 0
4.5 0.7 0
5 0.7 0
0 0.75 0
0.5 0.75 0
1 0.75 0
1.5 0.75 0
2 0.75 0
2.5 0.75 0
3 0.75 0
3.5 0.75 0
4 0.75 0
4.5 0.75 0
5 0.75 0
0 0.8 0
0.5 0.8 0
1 0.8 0
1.5 0.8 0
2 0.8 0
2.5 0.8 0
3 0.8 0
3.5 0.8 0
4 0.8 0
4.5 0.8 0
5 0.8 0
0 0.85 0
0.5 0.85 0
1 0.85 0
1.5 0.85 0
2 0.85 0
2.5 0.85 0
3 0.85 0
3.5 0.85 0
4 0.85 0
4.5 0.85 0
5 0.85 0
0 0.9 0
0.5 0.9 0
1 0.9 0
1.5 0.9 0
2 0.9 0
2.5 0.9 0
3 0.9 0
3.5 0.9 0
4 0.9 0
4.5 0.9 0
5 0.9 0
0 0.95 0
0.5 0.95 0
1 0.95 0
1.5 0.95 0
2 0.95 0
2.5 0.95 0
3 0.95 0
3.5 0.95 0
4 0.95 0
4.5 0.95 0
5 0.95 0
0 1 0
0.5 1 0
1 1 0
1.5 1 0
2 1 0
2.5 1 0
3 1 0
3.5 1 0
4 1 0
4.5 1 0
5 1 0
0 0 0.1
0.5 0 0.1
1 0 0.1
1.5 0 0.1
2 0 0.1
2.5 0 0.1
3 0 0.1
3.5 0 0.1
4 0 0.1
4.5 0 0.1
5 0 0.1
0 0.05 0.1
0.5 0.05 0.1
1 0.05 0.1
1.5 0.05 0.1
2 0.05 0.1
2.5 0.05 0.1
3 0.05 0.1
3.5 0.05 0.1
4 0.05 0.1
4.5 0.05 0.1
5 0.05 0.1
0 0.1 0.1
0.5 0.1 0.1
1 0.1 0.1
1.5 0.1 0.1
2 0.1 0.1
2.5 0.1 0.1
3 0.1 0.1
3.5 0.1 0.1
4 0.1 0.1
4.5 0.1 0.1
5 0.1 0.1
0 0.15 0.1
0.5 0.15 0.1
1 0.15 0.1
1.5 0.15 0.1
2 0.15 0.1
2.5 0.15 0.1
3 0.15 0.1
3.5 0.15 0.1
4 0.15 0.1
4.5 0.15 0.1
5 0.15 0.1
0 0.2 0.1
0.5 0.2 0.1
1 0.2 0.1
1.5 0.2 0.1
2 0.2 0.1
2.5 0.2 0.1
3 0.2 0.1
3.5 0.2 0.1
4 0.2 0.1
4.5 0.2 0.1
5 0.2 0.1
0 0.25 0.1
0.5 0.25 0.1
1 0.25 0.1
1.5 0.25 0.1
2 0.25 0.1
2.5 0.25 0.1
3 0.25 0.1
3.5 0.25 0.1
4 0.25 0.1
4.5 0.25 0.1
5 0.25 0.1
0 0.3 0.1
0.5 0.3 0.1
1 0.3 0.1
1.5 0.3 0.1
2 0.3 0.1
2.5 0.3 0.1
3 0.3 0.1
3.5 0.3 0.1
4 0.3 0.1
4.5 0.3 0.1
5 0.3 0.1
0 0.35 0.1
0.5 0.35 0.1
1 0.35 0.1
1.5 0.35 0.1
2 0.35 0.1
2.5 0.35 0.1
3 0.35 0.1
3.5 0.35 0.1
4 0.35 0.1
4.5 0.35 0.1
5 0.35 0.1
0 0.4 0.1
0.5 0.4 0.1
1 0.4 0.1
1.5 0.4 0.1
2 0.4 0.1
2.5 0.4 0.1
3 0.4 0.1
3.5 0.4 0.1
4 0.4 0.1
4.5 0.4 0.1
5 0.4 0.1
0 0.45 0.1
0.5 0.45 0.1
1 0.45 0.1
1.5 0.45 0.1
2 0.45 0.1
2.5 0.45 0.1
3 0.45 0.1
3.5 0.45 0.1
4 0.45 0.1
4.5 0.45 0.1
5 0.45 0.1
0 0.5 0.1
0.5 0.5 0.1
1 0.5 0.1
1.5 0.5 0.1
2 0.5 0.1
2.5 0.5 0.1
3 0.5 0.1
3.5 0.5 0.1
4 0.5 0.1
4.5 0.5 0.1
5 0.5 0.1
0 0.55 0.1
0.5 0.55 0.1
1 0.55 0.1
1.5 0.55 0.1
2 0.55 0.1
2.5 0.55 0.1
3 0.55 0.1
3.5 0.55 0.1
4 0.55 0.1
4.5 0.55 0.1
5 0.55 0.1
0 0.6 0.1
0.5 0.6 0.1
1 0.6 0.1
1.5 0.6 0.1
2 0.6 0.1
2.5 0.6 0.1
3 0.6 0.1
3.5 0.6 0.1
4 0.6 0.1
4.5 0.6 0.1
5 0.6 0.1
0 0.65 0.1
0.5 0.65 0.1
1 0.65 0.1
1.5 0.65 0.1
2 0.65 0.1
2.5 0.65 0.1
3 0.65 0.1
3.5 0.65 0.1
4 0.65 0.1
4.5 0.65 0.1
5 0.65 0.1
0 0.7 0.1
0.5 0.7 0.1
1 0.7 0.1
1.5 0.7 0.1
2 0.7 0.1
2.5 0.7 0.1
3 0.7 0.1
3.5 0.7 0.1
4 0.7 0.1
4.5 0.7 0.1
5 0.7 0.1
0 0.75 0.1
0.5 0.75 0.1
1 0.75 0.1
1.5 0.75 0.1
2 0.75 0.1
2.5 0.75 0.1
3 0.75 0.1
3.5 0.75 0.1
4 0.75 0.1
4.5 0.75 0.1
5 0.75 0.1
0 0.8 0.1
0.5 0.8 0.1
1 0.8 0.1
1.5 0.8 0.1
2 0.8 0.1
2.5 0.8 0.1
3 0.8 0.1
3.5 0.8 0.1
4 0.8 0.1
4.5 0.8 0.1
5 0.8 0.1
0 0.85 0.1
0.5 0.85 0.1
1 0.85 0.1
1.5 0.85 0.1
2 0.85 0.1
2.5 0.85 0.1
3 0.85 0.1
3.5 0.85 0.1
4 0.85 0.1
4.5 0.85 0.1
5 0.85 0.1
0 0.9 0.1
0.5 0.9 0.1
1 0.9 0.1
1.5 0.9 0.1
2 0.9 0.1
2.5 0.9 0.1
3 0.9 0.1
3.5 0.9 0.1
4 0.9 0.1
4.5 0.9 0.1
5 0.9 0.1
0 0.95 0.1
0.5 0.95 0.1
1 0.95 0.1
1.5 0.95 0.1
2 0.95 0.1
2.5 0.95 0.1
3 0.95 0.1
3.5 0.95 0.1
4 0.95 0.1
4.5 0.95 0.1
5 0.95 0.1
0 1 0.1
0.5 1 0.1
1 1 0.1
1.5 1 0.1
2 1 0.1
2.5 1 0.1
3 1 0.1
3.5 1 0.1
4 1 0.1
4.5 1 0.1
5 1 0.1
0 0 0.2
0.5 0 0.2
1 0 0.2
1.5 0 0.2
2 0 0.2
2.5 0 0.2
3 0 0.2
3.5 0 0.2
4 0 0.2
4.5 0 0.2
5 0 0.2
0 0.05 0.2
0.5 0.05 0.2
1 0.05 0.2
1.5 0.05 0.2
2 0.05 0.2
2.5 0.05 0.2
3 0.05 0.2
3.5 0.05 0.2
4 0.05 0.2
4.5 0.05 0.2
5 0.05 0.2
0 0.1 0.2
0.5 0.1 0.2
1 0.1 0.2
1.5 0.1 0.2
2 0.1 0.2
2.5 0.1 0.2
3 0.1 0.2
3.5 0.1 0.2
4 0.1 0.2
4.5 0.1 0.2
5 0.1 0.2
0 0.15 0.2
0.5 0.15 0.2
1 0.15 0.2
1.5 0.15 0.2
2 0.15 0.2
2.5 0.15 0.2
3 0.15 0.2
3.5 0.15 0.2
4 0.15 0.2
4.5 0.15 0.2
5 0.15 0.2
0 0.2 0.2
0.5 0.2 0.2
1 0.2 0.2
1.5 0.2 0.2
2 0.2 0.2
2.5 0.2 0.2
3 0.2 0.2
3.5 0.2 0.2
4 0.2 0.2
4.5 0.2 0.2
5 0.2 0.2
0 0.25 0.2
0.5 0.25 0.2
1 0.25 0.2
1.5 0.25 0.2
2 0.25 0.2
2.5 0.25 0.2
3 0.25 0.2
3.5 0.25 0.2
4 0.25 0.2
4.5 0.25 0.2
5 0.25 0.2
0 0.3 0.2
0.5 0.3 0.2
1 0.3 0.2
1.5 0.3 0.2
2 0.3 0.2
2.5 0.3 0.2
3 0.3 0.2
3.5 0.3 0.2
4 0.3 0.2
4.5 0.3 0.2
5 0.3 0.2
0 0.35 0.2
0.5 0.35 0.2
1 0.35 0.2
1.5 0.35 0.2
2 0.35 0.2
2.5 0.35 0.2
3 0.35 0.2
3.5 0.35 0.2
4 0.35 0.2
4.5 0.35 0.2
5 0.35 0.2
0 0.4 0.2
0.5 0.4 0.2
1 0.4 0.2
1.5 0.4 0.2
2 0.4 0.2
2.5 0.4 0.2
3 0.4 0.2
3.5 0.4 0.2
4 0.4 0.2
4.5 0.4 0.2
5 0.4 0.2
0 0.45 0.2
0.5 0.45 0.2
1 0.45 0.2
1.5 0.45 0.2
2 0.45 0.2
2.5 0.45 0.2
3 0.45 0.2
3.5 0.45 0.2
4 0.45 0.2
4.5 0.45 0.2
5 0.45 0.2
0 0.5 0.2
0.5 0.5 0.2
1 0.5 0.2
1.5 0.5 0.2
2 0.5 0.2
2.5 0.5 0.2
3 0.5 0.2
3.5 0.5 0.2
4 0.5 0.2
4.5 0.5 0.2
5 0.5 0.2
0 0.55 0.2
0.5 0.55 0.2
1 0.55 0.2
1.5 0.55 0.2
2 0.55 0.2
2.5 0.55 0.2
3 0.55 0.2
3.5 0.55 0.2
4 0.55 0.2
4.5 0.55 0.2
5 0.55 0.2
0 0.6 0.2
0.5 0.6 0.2
1 0.6 0.2
1.5 0.6 0.2
2 0.6 0.2
2.5 0.6 0.2
3 0.6 0.2
3.5 0.6 0.2
4 0.6 0.2
4.5 0.6 0.2
5 0.6 0.2
0 0.65 0.2
0.5 0.65 0.2
1 0.65 0.2
1.5 0.65 0.2
2 0.65 0.2
2.5 0.65 0.2
3 0.65 0.2
3.5 0.65 0.2
4 0.65 0.2
4.5 0.65 0.2
5 0.65 0.2
0 0.7 0.2
0.5 0.7 0.2
1 0.7 0.2
1.5 0.7 0.2
2 0.7 0.2
2.5 0.7 0.2
3 0.7 0.2
3.5 0.7 0.2
4 0.7 0.2
4.5 0.7 0.2
5 0.7 0.2
0 0.75 0.2
0.5 0.75 0.2
1 0.75 0.2
1.5 0.75 0.2
2 0.75 0.2
2.5 0.75 0.2
3 0.75 0.2
3.5 0.75 0.2
4 0.75 0.2
4.5 0.75 0.2
5 0.75 0.2
0 0.8 0.2
0.5 0.8 0.2
1 0.8 0.2
1.5 0.8 0.2
2 0.8 0.2
2.5 0.8 0.2
3 0.8 0.2
3.5 0.8 0.2
4 0.8 0.2
4.5 0.8 0.2
5 0.8 0.2
0 0.85 0.2
0.5 0.85 0.2
1 0.85 0.2
1.5 0.85 0.2
2 0.85 0.2
2.5 0.85 0.2
3 0.85 0.2
3.5 0.85 0.2
4 0.85 0.2
4.5 0.85 0.2
5 0.85 0.2
0 0.9 0.2
0.5 0.9 0.2
1 0.9 0.2
1.5 0.9 0.2
2 0.9 0.2
2.5 0.9 0.2
3 0.9 0.2
3.5 0.9 0.2
4 0.9 0.2
4.5 0.9 0.2
5 0.9 0.2
0 0.95 0.2
0.5 0.95 0.2
1 0.95 0.2
1.5 0.95 0.2
2 0.95 0.2
2.5 0.95 0.2
3 0.95 0.2
3.5 0.95 0.2
4 0.95 0.2
4.5 0.95 0.2
5 0.95 0.2
0 1 0.2
0.5 1 0.2
1 1 0.2
1.5 1 0.2
2 1 0.2
2.5 1 0.2
3 1 0.2
3.5 1 0.2
4 1 0.2
4.5 1 0.2
5 1 0.2
0 0 0.3
0.5 0 0.3
1 0 0.3
1.5 0 0.3
2 0 0.3
2.5 0 0.3
3 0 0.3
3.5 0 0.3
4 0 0.3
4.5 0 0.3
5 0 0.3
0 0.05 0.3
0.5 0.05 0.3
1 0.05 0.3
1.5 0.05 0.3
2 0.05 0.3
2.5 0.05 0.3
3 0.05 0.3
3.5 0.05 0.3
4 0.05 0.3
4.5 0.05 0.3
5 0.05 0.3
0 0.1 0.3
0.5 0.1 0.3
1 0.1 0.3
1.5 0.1 0.3
2 0.1 0.3
2.5 0.1 0.3
3 0.1 0.3
3.5 0.1 0.3
4 0.1 0.3
4.5 0.1 0.3
5 0.1 0.3
0 0.15 0.3
0.5 0.15 0.3
1 0.15 0.3
1.5 0.15 0.3
2 0.15 0.3
2.5 0.15 0.3
3 0.15 0.3
3.5 0.15 0.3
4 0.15 0.3
4.5 0.15 0.3
5 0.15 0.3
0 0.2 0.3
0.5 0.2 0.3
1 0.2 0.3
1.5 0.2 0.3
2 0.2 0.3
2.5 0.2 0.3
3 0.2 0.3
3.5 0.2 0.3
4 0.2 0.3
4.5 0.2 0.3
5 0.2 0.3
0 0.25 0.3
0.5 0.25 0.3
1 0.25 0.3
1.5 0.25 0.3
2 0.25 0.3
2.5 0.25 0.3
3 0.25 0.3
3.5 0.25 0.3
4 0.25 0.3
4.5 0.25 0.3
5 0.25 0.3
0 0.3 0.3
0.5 0.3 0.3
1 0.3 0.3
1.5 0.3 0.3
2 0.3 0.3
2.5 0.3 0.3
3 0.3 0.3
3.5 0.3 0.3
4 0.3 0.3
4.5 0.3 0.3
5 0.3 0.3
0 0.35 0.3
0.5 0.35 0.3
1 0.35 0.3
1.5 0.35 0.3
2 0.35 0.3
2.5 0.35 0.3
3 0.35 0.3
3.5 0.35 0.3
4 0.35 0.3
4.5 0.35 0.3
5 0.35 0.3
0 0.4 0.3
0.5 0.4 0.3
1 0.4 0.3
1.5 0.4 0.3
2 0.4 0.3
2.5 0.4 0.3
3 0.4 0.3
3.5 0.4 0.3
4 0.4 0.3
4.5 0.4 0.3
5 0.4 0.3
0 0.45 0.3
0.5 0.45 0.3
1 0.45 0.3
1.5 0.45 0.3
2 0.45 0.3
2.5 0.45 0.3
3 0.45 0.3
3.5 0.45 0.3
4 0.45 0.3
4.5 0.45 0.3
5 0.45 0.3
0 0.5 0.3
0.5 0.5 0.3
1 0.5 0.3
1.5 0.5 0.3
2 0.5 0.3
2.5 0.5 0.3
3 0.5 0.3
3.5 0.5 0.3
4 0.5 0.3
4.5 0.5 0.3
5 0.5 0.3
0 0.55 0.3
0.5 0.55 0.3
1 0.55 0.3
1.5 0.55 0.3
2 0.55 0.3
2.5 0.55 0.3
3 0.55 0.3
3.5 0.55 0.3
4 0.55 0.3
4.5 0.55 0.3
5 0.55 0.3
0 0.6 0.3
0.5 0.6 0.3
1 0.6 0.3
1.5 0.6 0.3
2 0.6 0.3
2.5 0.6 0.3
3 0.6 0.3
3.5 0.6 0.3
4 0.6 0.3
4.5 0.6 0.3
5 0.6 0.3
0 0.65 0.3
0.5 0.65 0.3
1 0.65 0.3
1.5 0.65 0.3
2 0.65 0.3
2.5 0.65 0.3
3 0.65 0.3
3.5 0.65 0.3
4 0.65 0.3
4.5 0.65 0.3
5 0.65 0.3
0 0.7 0.3
0.5 0.7 0.3
1 0.7 0.3
1.5 0.7 0.3
2 0.7 0.3
2.5 0.7 0.3
3 0.7 0.3
3.5 0.7 0.3
4 0.7 0.3
4.5 0.7 0.3
5 0.7 0.3
0 0.75 0.3
0.5 0.75 0.3
1 0.75 0.3
1.5 0.75 0.3
2 0.75 0.3
2.5 0.75 0.3
3 0.75 0.3
3.5 0.75 0.3
4 0.75 0.3
4.5 0.75 0.3
5 0.75 0.3
0 0.8 0.3
0.5 0.8 0.3
1 0.8 0.3
1.5 0.8 0.3
2 0.8 0.3
2.5 0.8 0.3
3 0.8 0.3
3.5 0.8 0.3
4 0.8 0.3
4.5 0.8 0.3
5 0.8 0.3
0 0.85 0.3
0.5 0.85 0.3
1 0.85 0.3
1.5 0.85 0.3
2 0.85 0.3
2.5 0.85 0.3
3 0.85 0.3
3.5 0.85 0.3
4 0.85 0.3
4.5 0.85 0.3
5 0.85 0.3
0 0.9 0.3
0.5 0.9 0.3
1 0.9 0.3
1.5 0.9 0.3
2 0.9 0.3
2.5 0.9 0.3
3 0.9 0.3
3.5 0.9 0.3
4 0.9 0.3
4.5 0.9 0.3
5 0.9 0.3
0 0.95 0.3
0.5 0.95 0.3
1 0.95 0.3
1.5 0.95 0.3
2 0.95 0.3
2.5 0.95 0.3
3 0.95 0.3
3.5 0.95 0.3
4 0.95 0.3
4.5 0.95 0.3
5 0.95 0.3
0 1 0.3
0.5 1 0.3
1 1 0.3
1.5 1 0.3
2 1 0.3
2.5 1 0.3
3 1 0.3
3.5 1 0.3
4 1 0.3
4.5 1 0.3
5 1 0.3
0 0 0.4
[...]
CELL_DATA 2000
SCALARS pressure float 1
LOOKUP_TABLE default
0
0
0.840367
0.908527
0.742746
0.595574
0.454323
0.31465
0.174726
0.0232655
0
0
0.837167
0.901952
0.742152
0.595448
0.454293
0.314646
0.174709
0.0250193
0
0
0.807502
0.898163
0.741218
0.595244
0.454245
0.314639
0.174764
0.0269322
0
0
0.793866
0.889425
0.739988
0.59497
0.45418
0.31463
0.174861
0.0286082
1.20795
1.34754
0.795341
0.880839
0.738485
0.594642
0.454102
0.314619
0.174973
0.0299666
1.20643
1.34859
0.809282
0.87264
0.736826
0.594271
0.454012
0.314606
0.175083
0.0310419
1.2014
1.34824
0.828255
0.865798
0.735121
0.593873
0.453913
0.31459
0.17518
0.0318657
1.19353
1.34568
0.852899
0.860587
0.733455
0.593458
0.453808
0.31457
0.175257
0.0324627
1.18518
1.3409
0.878352
0.856959
0.731897
0.593036
0.453697
0.314547
0.175309
0.0328507
1.17792
1.33499
0.902008
0.854555
0.730478
0.592617
0.453585
0.314521
0.175332
0.0330412
1.17231
1.32879
0.923251
0.85305
0.7292
0.592209
0.453472
0.314491
0.175324
0.0330398
1.16867
1.32288
0.9419
0.852189
0.728058
0.591817
0.453361
0.314459
0.175287
0.0328468
1.16738
1.31763
0.95792
0.851754
0.727042
0.591447
0.453255
0.314425
0.175221
0.0324562
1.16845
1.31322
0.971361
0.851564
0.726141
0.591104
0.453154
0.314391
0.17513
0.0318568
1.17178
1.30971
0.982314
0.851472
0.725342
0.590789
0.45306
0.314357
0.17502
0.0310307
1.17722
1.30705
0.99089
0.851361
0.724632
0.590508
0.452977
0.314325
0.174899
0.0299534
1.18431
1.30514
0.997211
0.851143
0.724002
0.590261
0.452903
0.314297
0.174777
0.0285932
1.19151
1.30369
1.00143
0.850776
0.723451
0.590053
0.452843
0.314274
0.174672
0.0269158
1.19628
1.30273
1.00375
0.850302
0.723005
0.589895
0.452798
0.314257
0.174612
0.0250018
1.19779
1.30239
1.0041
0.849759
0.722697
0.589795
0.452771
0.314248
0.174625
0.0232473
0
0
0.849052
0.907571
0.742917
0.595566
0.454318
0.314661
0.174887
0.0269246
0
0
0.843783
0.901374
0.74203
0.595407
0.454283
0.314653
0.174783
0.0298022
0
0
0.814308
0.89749
0.740991
0.595182
0.454231
0.314643
0.174888
0.0320735
0
0
0.817134
0.891127
0.739675
0.594904
0.454167
0.314635
0.17502
0.0337659
1.19603
1.34276
0.775215
0.88163
0.738153
0.59458
0.45409
0.314625
0.175151
0.0351354
1.19414
1.35971
0.78172
0.871218
0.736486
0.59422
0.454002
0.314614
0.175273
0.0362208
1.19044
1.36027
0.807797
0.863429
0.734801
0.593832
0.453905
0.314599
0.175377
0.0370531
1.18544
1.35354
0.837003
0.858463
0.733202
0.593428
0.453802
0.31458
0.175458
0.0376564
1.17987
1.34475
0.865783
0.855265
0.731721
0.593018
0.453695
0.314558
0.175511
0.0380484
1.1745
1.33533
0.892791
0.853234
0.730364
0.592609
0.453585
0.314533
0.175535
0.0382409
1.17039
1.32617
0.916687
0.852067
0.729137
0.592211
0.453474
0.314504
0.175528
0.0382396
1.1676
1.31814
0.937279
0.851492
0.728038
0.591829
0.453366
0.314472
0.175489
0.0380446
1.16614
1.31178
0.954758
0.851289
0.727061
0.591469
0.453262
0.314438
0.175422
0.0376501
1.16603
1.30725
0.969309
0.851286
0.726192
0.591134
0.453163
0.314403
0.175327
0.0370444
1.16763
1.30436
0.981084
0.851343
0.725422
0.590828
0.453072
0.314369
0.175211
0.0362099
1.17104
1.30263
0.990218
0.851351
0.724736
0.590552
0.452989
0.314337
0.175078
0.0351226
1.17531
1.30147
0.996866
0.851234
0.724127
0.590311
0.452917
0.314308
0.174938
0.0337514
1.17977
1.30049
1.00118
0.850933
0.72359
0.590105
0.452857
0.314284
0.174797
0.0320575
1.18356
1.30004
1.00353
0.850426
0.723117
0.589935
0.452809
0.314269
0.174687
0.0297851
1.18619
1.3012
1.00384
0.849739
0.722743
0.589816
0.452778
0.314261
0.174786
0.0269067
0
0
0.859394
0.909469
0.743241
0.595563
0.454312
0.314682
0.175164
0.0299409
0
0
0.853537
0.90397
0.742288
0.59539
0.454275
0.314674
0.175072
0.0330843
0
0
0.8279
0.900923
0.74123
0.59515
0.45422
0.314665
0.175207
0.0355424
0
0
0.832816
0.895902
0.73996
0.594873
0.454155
0.314659
0.175365
0.037323
1.18306
1.33206
0.769415
0.886659
0.738482
0.594553
0.454079
0.314651
0.175514
0.0387427
1.18137
1.36496
0.753457
0.874519
0.736795
0.594194
0.453993
0.314641
0.175648
0.0398612
1.18093
1.37611
0.77531
0.864036
0.734996
0.593809
0.453898
0.314628
0.175761
0.040715
1.18392
1.37035
0.812512
0.856958
0.733242
0.593408
0.453798
0.314611
0.175847
0.0413319
1.189
1.35452
0.848395
0.852997
0.731652
0.593003
0.453693
0.31459
0.175905
0.0417322
1.19407
1.33614
0.879645
0.851094
0.73026
0.592601
0.453585
0.314565
0.17593
0.0419285
1.19768
1.31986
0.906983
0.850329
0.729044
0.592211
0.453478
0.314537
0.175923
0.0419273
1.19872
1.30739
0.930572
0.850179
0.727975
0.591838
0.453372
0.314505
0.175883
0.0417285
1.19712
1.29895
0.950506
0.850353
0.727031
0.591486
0.45327
0.314472
0.175812
0.0413258
1.19286
1.29432
0.96703
0.85067
0.726198
0.59116
0.453174
0.314437
0.175712
0.0407066
1.18632
1.29307
0.980342
0.850997
0.72546
0.590861
0.453085
0.314402
0.175588
0.0398507
1.17898
1.29423
0.990418
0.851228
0.724805
0.590593
0.453004
0.314369
0.175443
0.0387303
1.17273
1.29615
0.997319
0.85127
0.724227
0.590358
0.452933
0.314338
0.175284
0.0373088
1.16974
1.29751
1.0015
0.851045
0.723706
0.590155
0.452873
0.314313
0.175118
0.0355269
1.17071
1.29851
1.00376
0.850539
0.72322
0.589977
0.452823
0.314296
0.174977
0.0330675
1.17324
1.30059
1.00416
0.849821
0.722822
0.58985
0.452789
0.314287
0.175065
0.0299233
0
0
0.865298
0.911726
0.74356
0.595571
0.454309
0.314704
0.175414
0.0318632
0
0
0.860024
0.9065
0.742603
0.595395
0.454271
0.314696
0.175328
0.0350649
0
0
0.834948
0.904034
0.741571
0.595155
0.454216
0.314689
0.175474
0.0375789
0
0
0.837251
0.899611
0.740355
0.594881
0.454152
0.314684
0.175644
0.0394015
1.1763
1.33448
0.769695
0.890599
0.738931
0.594566
0.454077
0.314678
0.175802
0.0408522
1.17589
1.37092
0.742237
0.878044
0.737268
0.594214
0.453992
0.314669
0.175944
0.0419933
1.17935
1.38663
0.749625
0.865946
0.735413
0.59383
0.453898
0.314657
0.176063
0.0428634
1.19056
1.38282
0.782071
0.856767
0.733521
0.593426
0.453799
0.314641
0.176153
0.0434916
1.20833
1.36369
0.82469
0.851446
0.731765
0.593015
0.453695
0.314621
0.176213
0.0438987
1.2274
1.3379
0.864396
0.84906
0.730238
0.592608
0.453588
0.314597
0.17624
0.0440983
1.24189
1.31288
0.897143
0.848317
0.728942
0.592215
0.453482
0.314569
0.176233
0.0440971
1.2485
1.29339
0.924291
0.848426
0.727841
0.591841
0.453378
0.314538
0.176192
0.0438951
1.24681
1.28164
0.947209
0.848959
0.726894
0.59149
0.453277
0.314504
0.176119
0.0434856
1.23665
1.27751
0.965956
0.849671
0.72608
0.591167
0.453182
0.314469
0.176015
0.0428552
1.21882
1.27913
0.980319
0.850372
0.725383
0.590874
0.453093
0.314433
0.175884
0.041983
1.19728
1.28391
0.990637
0.850896
0.724779
0.590612
0.453014
0.314399
0.175732
0.04084
1.17855
1.28964
0.997589
0.851125
0.724237
0.590381
0.452944
0.314368
0.175564
0.0393876
1.16765
1.2944
1.00181
0.850994
0.723735
0.59018
0.452884
0.314341
0.175386
0.0375635
1.16495
1.29738
1.00406
0.850529
0.723255
0.590001
0.452833
0.314322
0.175234
0.0350483
1.16626
1.30025
1.00456
0.849832
0.722858
0.589873
0.452799
0.314312
0.175316
0.0318458
0
0
0.867254
0.913034
0.743753
0.595579
0.454308
0.314717
0.175556
0.0327881
0
0
0.861986
0.907921
0.742801
0.595402
0.45427
0.31471
0.175471
0.036004
0
0
0.836525
0.905709
0.741783
0.595163
0.454215
0.314704
0.175621
0.0385367
0
0
0.837882
0.901541
0.740595
0.594891
0.454151
0.314699
0.175795
0.0403763
1.17394
1.33819
0.769214
0.892619
0.739198
0.594579
0.454076
0.314694
0.175958
0.0418406
1.17444
1.37557
0.739364
0.879932
0.737552
0.59423
0.453992
0.314686
0.176103
0.0429923
1.18091
1.39183
0.741738
0.867473
0.735692
0.593849
0.453899
0.314674
0.176224
0.0438704
1.19792
1.38802
0.767095
0.857494
0.733755
0.593447
0.4538
0.314659
0.176317
0.0445042
1.22347
1.36783
0.805892
0.850928
0.731902
0.593031
0.453697
0.314639
0.176378
0.0449151
1.2511
1.33892
0.848992
0.847597
0.730253
0.592617
0.453591
0.314615
0.176406
0.0451166
1.27324
1.30952
0.888929
0.846628
0.728856
0.592215
0.453484
0.314587
0.176399
0.0451154
1.28382
1.28562
0.921788
0.846988
0.727699
0.591835
0.45338
0.314556
0.176357
0.0449115
1.28183
1.27123
0.947109
0.84793
0.72675
0.591484
0.45328
0.314522
0.176283
0.0444983
1.26729
1.26692
0.966158
0.849002
0.725971
0.591165
0.453185
0.314487
0.176177
0.0438623
1.24172
1.27005
0.980363
0.84996
0.725314
0.590876
0.453098
0.314451
0.176043
0.0429821
1.21178
1.27735
0.990691
0.850656
0.724742
0.590618
0.453019
0.314417
0.175887
0.0418285
1.18544
1.28564
0.997709
0.850995
0.724222
0.590389
0.452949
0.314385
0.175715
0.0403625
1.16889
1.29246
1.00196
0.850925
0.723733
0.59019
0.452889
0.314357
0.175533
0.0385215
1.16333
1.29672
1.00424
0.850492
0.723261
0.590012
0.452838
0.314338
0.175378
0.0359875
1.16376
1.3001
1.0048
0.849814
0.722866
0.589883
0.452804
0.314327
0.175458
0.0327708
0
0
0.867254
0.913034
0.743753
0.595579
0.454308
0.314717
0.175556
0.0327881
0
0
0.861986
0.907921
0.742801
0.595402
0.45427
0.31471
0.175471
0.036004
0
0
0.836525
0.905709
0.741783
0.595163
0.454215
0.314704
0.175621
0.0385367
0
0
0.837882
0.901541
0.740595
0.594891
0.454151
0.314699
0.175795
0.0403763
1.17394
1.33819
0.769214
0.892619
0.739198
0.594579
0.454076
0.314694
0.175958
0.0418406
1.17444
1.37557
0.739364
0.879932
0.737552
0.59423
0.453992
0.314686
0.176103
0.0429923
1.18091
1.39183
0.741738
0.867473
0.735692
0.593849
0.453899
0.314674
0.176224
0.0438704
1.19792
1.38802
0.767095
0.857494
0.733755
0.593447
0.4538
0.314659
0.176317
0.0445042
1.22347
1.36783
0.805892
0.850928
0.731902
0.593031
0.453697
0.314639
0.176378
0.0449151
1.2511
1.33892
0.848992
0.847597
0.730253
0.592617
0.453591
0.314615
0.176406
0.0451166
1.27324
1.30952
0.888929
0.846628
0.728856
0.592215
0.453484
0.314587
0.176399
0.0451154
1.28382
1.28562
0.921788
0.846988
0.727699
0.591835
0.45338
0.314556
0.176357
0.0449115
1.28183
1.27123
0.947109
0.84793
0.72675
0.591484
0.45328
0.314522
0.176283
0.0444983
1.26729
1.26692
0.966158
0.849002
0.725971
0.591165
0.453185
0.314487
0.176177
0.0438623
1.24172
1.27005
0.980363
0.84996
0.725314
0.590876
0.453098
0.314451
0.176043
0.0429821
1.21178
1.27735
0.990691
0.850656
0.724742
0.590618
0.453019
0.314417
0.175887
0.0418285
1.18544
1.28564
0.997709
0.850995
0.724222
0.590389
0.452949
0.314385
0.175715
0.0403625
1.16889
1.29246
1.00196
0.850925
0.723733
0.59019
0.452889
0.314357
0.175533
0.0385215
1.16333
1.29672
1.00424
0.850492
0.723261
0.590012
0.452838
0.314338
0.175378
0.0359875
1.16376
1.3001
1.0048
0.849814
0.722866
0.589883
0.452804
0.314327
0.175458
0.0327708
0
0
0.865298
0.911726
0.74356
0.595571
0.454309
0.314704
0.175414
0.0318632
0
0
0.860024
0.9065
0.742603
0.595395
0.454271
0.314696
0.175328
0.0350649
0
0
0.834948
0.904034
0.741571
0.595155
0.454216
0.314689
0.175474
0.0375789
0
0
0.837251
0.899611
0.740355
0.594881
0.454152
0.314684
0.175644
0.0394015
1.1763
1.33448
0.769695
0.890599
0.738931
0.594566
0.454077
0.314678
0.175802
0.0408522
1.17589
1.37092
0.742237
0.878044
0.737268
0.594214
0.453992
0.314669
0.175944
0.0419933
1.17935
1.38663
0.749625
0.865946
0.735413
0.59383
0.453898
0.314657
0.176063
0.0428634
1.19056
1.38282
0.782071
0.856767
0.733521
0.593426
0.453799
0.314641
0.176153
0.0434916
1.20833
1.36369
0.82469
0.851446
0.731765
0.593015
0.453695
0.314621
0.176213
0.0438987
1.2274
1.3379
0.864396
0.84906
0.730238
0.592608
0.453588
0.314597
0.17624
0.0440983
1.24189
1.31288
0.897143
0.848317
0.728942
0.592215
0.453482
0.314569
0.176233
0.0440971
1.2485
1.29339
0.924291
0.848426
0.727841
0.591841
0.453378
0.314538
0.176192
0.0438951
1.24681
1.28164
0.947209
0.848959
0.726894
0.59149
0.453277
0.314504
0.176119
0.0434856
1.23665
1.27751
0.965956
0.849671
0.72608
0.591167
0.453182
0.314469
0.176015
0.0428552
1.21882
1.27913
0.980319
0.850372
0.725383
0.590874
0.453093
0.314433
0.175884
0.041983
1.19728
1.28391
0.990637
0.850896
0.724779
0.590612
0.453014
0.314399
0.175732
0.04084
1.17855
1.28964
0.997589
0.851125
0.724237
0.590381
0.452944
0.314368
0.175564
0.0393876
1.16765
1.2944
1.00181
0.850994
0.723735
0.59018
0.452884
0.314341
0.175386
0.0375635
1.16495
1.29738
1.00406
0.850529
0.723255
0.590001
0.452833
0.314322
0.175234
0.0350483
1.16626
1.30025
1.00456
0.849832
0.722858
0.589873
0.452799
0.314312
0.175316
0.0318458
0
0
0.859394
0.909469
0.743241
0.595563
0.454312
0.314682
0.175164
0.0299409
0
0
0.853537
0.90397
0.742288
0.59539
0.454275
0.314674
0.175072
0.0330843
0
0
0.8279
0.900923
0.74123
0.59515
0.45422
0.314665
0.175207
0.0355424
0
0
0.832816
0.895902
0.73996
0.594873
0.454155
0.314659
0.175365
0.037323
1.18306
1.33206
0.769415
0.886659
0.738482
0.594553
0.454079
0.314651
0.175514
0.0387427
1.18137
1.36496
0.753457
0.874519
0.736795
0.594194
0.453993
0.314641
0.175648
0.0398612
1.18093
1.37611
0.77531
0.864036
0.734996
0.593809
0.453898
0.314628
0.175761
0.040715
1.18392
1.37035
0.812512
0.856958
0.733242
0.593408
0.453798
0.314611
0.175847
0.0413319
1.189
1.35452
0.848395
0.852997
0.731652
0.593003
0.453693
0.31459
0.175905
0.0417322
1.19407
1.33614
0.879645
0.851094
0.73026
0.592601
0.453585
0.314565
0.17593
0.0419285
1.19768
1.31986
0.906983
0.850329
0.729044
0.592211
0.453478
0.314537
0.175923
0.0419273
1.19872
1.30739
0.930572
0.850179
0.727975
0.591838
0.453372
0.314505
0.175883
0.0417285
1.19712
1.29895
0.950506
0.850353
0.727031
0.591486
0.45327
0.314472
0.175812
0.0413258
1.19286
1.29432
0.96703
0.85067
0.726198
0.59116
0.453174
0.314437
0.175712
0.0407066
1.18632
1.29307
0.980342
0.850997
0.72546
0.590861
0.453085
0.314402
0.175588
0.0398507
1.17898
1.29423
0.990418
0.851228
0.724805
0.590593
0.453004
0.314369
0.175443
0.0387303
1.17273
1.29615
0.997319
0.85127
0.724227
0.590358
0.452933
0.314338
0.175284
0.0373088
1.16974
1.29751
1.0015
0.851045
0.723706
0.590155
0.452873
0.314313
0.175118
0.0355269
1.17071
1.29851
1.00376
0.850539
0.72322
0.589977
0.452823
0.314296
0.174977
0.0330675
1.17324
1.30059
1.00416
0.849821
0.722822
0.58985
0.452789
0.314287
0.175065
0.0299233
0
0
0.849052
0.907571
0.742917
0.595566
0.454318
0.314661
0.174887
0.0269246
0
0
0.843783
0.901374
0.74203
0.595407
0.454283
0.314653
0.174783
0.0298022
0
0
0.814308
0.89749
0.740991
0.595182
0.454231
0.314643
0.174888
0.0320735
0
0
0.817134
0.891127
0.739675
0.594904
0.454167
0.314635
0.17502
0.0337659
1.19603
1.34276
0.775215
0.88163
0.738153
0.59458
0.45409
0.314625
0.175151
0.0351354
1.19414
1.35971
0.78172
0.871218
0.736486
0.59422
0.454002
0.314614
0.175273
0.0362208
1.19044
1.36027
0.807797
0.863429
0.734801
0.593832
0.453905
0.314599
0.175377
0.0370531
1.18544
1.35354
0.837003
0.858463
0.733202
0.593428
0.453802
0.31458
0.175458
0.0376564
1.17987
1.34475
0.865783
0.855265
0.731721
0.593018
0.453695
0.314558
0.175511
0.0380484
1.1745
1.33533
0.892791
0.853234
0.730364
0.592609
0.453585
0.314533
0.175535
0.0382409
1.17039
1.32617
0.916687
0.852067
0.729137
0.592211
0.453474
0.314504
0.175528
0.0382396
1.1676
1.31814
0.937279
0.851492
0.728038
0.591829
0.453366
0.314472
0.175489
0.0380446
1.16614
1.31178
0.954758
0.851289
0.727061
0.591469
0.453262
0.314438
0.175422
0.0376501
1.16603
1.30725
0.969309
0.851286
0.726192
0.591134
0.453163
0.314403
0.175327
0.0370444
1.16763
1.30436
0.981084
0.851343
0.725422
0.590828
0.453072
0.314369
0.175211
0.0362099
1.17104
1.30263
0.990218
0.851351
0.724736
0.590552
0.452989
0.314337
0.175078
0.0351226
1.17531
1.30147
0.996866
0.851234
0.724127
0.590311
0.452917
0.314308
0.174938
0.0337514
1.17977
1.30049
1.00118
0.850933
0.72359
0.590105
0.452857
0.314284
0.174797
0.0320575
1.18356
1.30004
1.00353
0.850426
0.723117
0.589935
0.452809
0.314269
0.174687
0.0297851
1.18619
1.3012
1.00384
0.849739
0.722743
0.589816
0.452778
0.314261
0.174786
0.0269067
0
0
0.840367
0.908527
0.742746
0.595574
0.454323
0.31465
0.174726
0.0232655
0
0
0.837167
0.901952
0.742152
0.595448
0.454293
0.314646
0.174709
0.0250193
0
0
0.807502
0.898163
0.741218
0.595244
0.454245
0.314639
0.174764
0.0269322
0
0
0.793866
0.889425
0.739988
0.59497
0.45418
0.31463
0.174861
0.0286082
1.20795
1.34754
0.795341
0.880839
0.738485
0.594642
0.454102
0.314619
0.174973
0.0299666
1.20643
1.34859
0.809282
0.87264
0.736826
0.594271
0.454012
0.314606
0.175083
0.0310419
1.2014
1.34824
0.828255
0.865798
0.735121
0.593873
0.453913
0.31459
0.17518
0.0318657
1.19353
1.34568
0.852899
0.860587
0.733455
0.593458
0.453808
0.31457
0.175257
0.0324627
1.18518
1.3409
0.878352
0.856959
0.731897
0.593036
0.453697
0.314547
0.175309
0.0328507
1.17792
1.33499
0.902008
0.854555
0.730478
0.592617
0.453585
0.314521
0.175332
0.0330412
1.17231
1.32879
0.923251
0.85305
0.7292
0.592209
0.453472
0.314491
0.175324
0.0330398
1.16867
1.32288
0.9419
0.852189
0.728058
0.591817
0.453361
0.314459
0.175287
0.0328468
1.16738
1.31763
0.95792
0.851754
0.727042
0.591447
0.453255
0.314425
0.175221
0.0324562
1.16845
1.31322
0.971361
0.851564
0.726141
0.591104
0.453154
0.314391
0.17513
0.0318568
1.17178
1.30971
0.982314
0.851472
0.725342
0.590789
0.45306
0.314357
0.17502
0.0310307
1.17722
1.30705
0.99089
0.851361
0.724632
0.590508
0.452977
0.314325
0.174899
0.0299534
1.18431
1.30514
0.997211
0.851143
0.724002
0.590261
0.452903
0.314297
0.174777
0.0285932
1.19151
1.30369
1.00143
0.850776
0.723451
0.590053
0.452843
0.314274
0.174672
0.0269158
1.19628
1.30273
1.00375
0.850302
0.723005
0.589895
0.452798
0.314257
0.174612
0.0250018
1.19779
1.30239
1.0041
0.849759
0.722697
0.589795
0.452771
0.314248
0.174625
0.0232473

VECTORS velocity float
0 0 0
0 0 0
0.664092 -0.0278557 -0.00483963
0.617712 -0.00170131 0.000980112
0.634241 -0.000510259 0.000137292
0.639672 -0.000118609 3.41585e-05
0.640906 -2.59503e-05 8.14312e-06
0.641223 -7.95521e-06 -3.65458e-06
0.641452 1.38182e-05 -5.39272e-05
0.672459 -0.00209797 -0.00197906
0 0 0
0 0 0
-0.0718919 -0.0826217 -0.00403179
0.645407 -0.0104814 0.00079933
0.721291 -0.00204956 0.000239674
0.73202 -0.000429927 5.80383e-05
0.733997 -9.24836e-05 1.3121e-05
0.734462 -2.71015e-05 -2.57509e-06
0.735367 -2.7052e-05 -4.66493e-05
0.750733 -0.00434855 -0.00261204
0 0 0
0 0 0
0.690079 -0.14122 -0.00240905
0.692969 -0.0213616 0.000597462
0.736147 -0.00399957 0.000211611
0.745989 -0.000821071 5.87555e-05
0.748041 -0.000176087 1.3825e-05
0.748529 -4.96744e-05 -2.68743e-06
0.749405 -0.000127544 -5.80219e-05
0.760802 -0.00419696 -0.0027382
0 0 0
0 0 0
-0.0578789 -0.202951 -0.000528757
0.667442 -0.0311882 -0.000183345
0.73762 -0.00590474 0.000166598
0.748287 -0.00121291 5.5235e-05
0.750292 -0.000260376 1.32265e-05
0.750757 -7.13947e-05 -3.13154e-06
0.751458 -0.000196758 -6.9559e-05
0.762382 -0.0035386 -0.00277673
0.352838 -0.0146066 -0.031004
0.687877 0.00870157 -0.0242475
0.691148 -0.235633 0.0114157
0.696671 -0.0414412 0.00121167
0.740124 -0.00772829 0.000231853
0.748819 -0.00157919 5.35182e-05
0.750592 -0.000338826 1.20046e-05
0.751009 -9.03431e-05 -3.77201e-06
0.751552 -0.000226338 -7.53095e-05
0.762701 -0.00286041 -0.00279027
0.441626 -0.0389342 -0.0398263
0.866137 0.0189252 -0.0286777
0.853548 -0.23276 0.0171286
0.725214 -0.048187 0.00255149
0.74281 -0.00922759 0.000285279
0.749199 -0.00189816 4.90697e-05
0.750682 -0.000407831 1.02499e-05
0.751037 -0.000105499 -4.5266e-06
0.751451 -0.00022573 -7.87533e-05
0.762857 -0.00224488 -0.0027991
0.491452 -0.052633 -0.0452473
0.901764 0.0193683 -0.0267018
0.89319 -0.218774 0.0136254
0.740865 -0.0519523 0.00238503
0.745019 -0.0103719 0.000247691
0.749585 -0.00215987 3.90271e-05
0.750761 -0.000465194 7.99867e-06
0.751047 -0.000116391 -5.31468e-06
0.751358 -0.00020268 -8.08693e-05
0.76297 -0.00168787 -0.00280512
0.531542 -0.0559691 -0.0491442
0.9053 0.0167487 -0.0238094
0.898461 -0.200208 0.00807384
0.751033 -0.0534173 0.00166268
0.747107 -0.0111668 0.000178992
0.750004 -0.0023578 2.72585e-05
0.750849 -0.000509271 5.50703e-06
0.751059 -0.000122877 -6.09141e-06
0.751292 -0.000163426 -8.21826e-05
0.763053 -0.00117587 -0.00280911
0.564138 -0.0511004 -0.0521471
0.902825 0.0139861 -0.0216004
0.896928 -0.179617 0.00422679
0.759641 -0.0530179 0.000999174
0.749269 -0.0116105 0.000107406
0.750455 -0.00248702 1.53135e-05
0.750944 -0.000538852 2.91256e-06
0.751074 -0.000125045 -6.82961e-06
0.75125 -0.000113085 -8.29815e-05
0.763108 -0.000695328 -0.00281153
0.589453 -0.0399298 -0.0546272
0.89976 0.0122209 -0.020235
0.894349 -0.158821 0.00180841