# vtk DataFile Version 2.0
TestTestTest
ASCII

DATASET STRUCTURED_GRID
DIMENSIONS 11 21 11
POINTS 2541 float
0 0 0
0.5 0 0
1 0 0
1.5 0 0
2 0 0
2.5 0 0
3 0 0
3.5 0 0
4 0 0
4.5 0 0
5 0 0
0 0.05 0
0.5 0.05 0
1 0.05 0
1.5 0.05 0
2 0.05 0
2.5 0.05 0
3 0.05 0
3.5 0.05 0
4 0.05 0
4.5 0.05 0
5 0.05 0
0 0.1 0
0.5 0.1 0
1 0.1 0
1.5 0.1 0
2 0.1 0
2.5 0.1 0
3 0.1 0
3.5 0.1 0
4 0.1 0
4.5 0.1 0
5 0.1 0
0 0.15 0
0.5 0.15 0
1 0.15 0
1.5 0.15 0
2 0.15 0
2.5 0.15 0
3 0.15 0
3.5 0.15 0
4 0.15 0
4.5 0.15 0
5 0.15 0
0 0.2 0
0.5 0.2 0
1 0.2 0
1.5 0.2 0
2 0.2 0
2.5 0.2 0
3 0.2 0
3.5 0.2 0
4 0.2 0
4.5 0.2 0
5 0.2 0
0 0.25 0
0.5 0.25 0
1 0.25 0
1.5 0.25 0
2 0.25 0
2.5 0.25 0
3 0.25 0
3.5 0.25 0
4 0.25 0
4.5 0.25 0
5 0.25 0
0 0.3 0
0.5 0.3 0
1 0.3 0
1.5 0.3 0
2 0.3 0
2.5 0.3 0
3 0.3 0
3.5 0.3 0
4 0.3 0
4.5 0.3 0
5 0.3 0
0 0.35 0
0.5 0.35 0
1 0.35 0
1.5 0.35 0
2 0.35 0
2.5 0.35 0
3 0.35 0
3.5 0.35 0
4 0.35 0
4.5 0.35 0
5 0.35 0
0 0.4 0
0.5 0.4 0
1 0.4 0
1.5 0.4 0
2 0.4 0
2.5 0.4 0
3 0.4 0
3.5 0.4 0
4 0.4 0
4.5 0.4 0
5 0.4 0
0 0.45 0
0.5 0.45 0
1 0.45 0
1.5 0.45 0
2 0.45 0
2.5 0.45 0
3 0.45 0
3.5 0.45 0
4 0.45 0
4.5 0.45 0
5 0.45 0
0 0.5 0
0.5 0.5 0
1 0.5 0
1.5 0.5 0
2 0.5 0
2.5 0.5 0
3 0.5 0
3.5 0.5 0
4 0.5 0
4.5 0.5 0
5 0.5 0
0 0.55 0
0.5 0.55 0
1 0.55 0
1.5 0.55 0
2 0.55 0
2.5 0.55 0
3 0.55 0
3.5 0.55 0
4 0.55 0
4.5 0.55 0
5 0.55 0
0 0.6 0
0.5 0.6 0
1 0.6 0
1.5 0.6 0
2 0.6 0
2.5 0.6 0
3 0.6 0
3.5 0.6 0
4 0.6 0
4.5 0.6 0
5 0.6 0
0 0.65 0
0.5 0.65 0
1 0.65 0
1.5 0.65 0
2 0.65 0
2.5 0.65 0
3 0.65 0
3.5 0.65 0
4 0.65 0
4.5 0.65 0
5 0.65 0
0 0.7 0
0.5 0.7 0
1 0.7 0
1.5 0.7 0
2 0.7 0
2.5 0.7 0
3 0.7 0
3.5 0.7 0
4 0.7 0
4.5 0.7 0
5 0.7 0
0 0.75 0
0.5 0.75 0
1 0.75 0
1.5 0.75 0
2 0.75 0
2.5 0.75 0
3 0.75 0
3.5 0.75 0
4 0.75 0
4.5 0.75 0
5 0.75 0
0 0.8 0
0.5 0.8 0
1 0.8 0
1.5 0.8 0
2 0.8 0
2.5 0.8 0
3 0.8 0
3.5 0.8 0
4 0.8 0
4.5 0.8 0
5 0.8 0
0 0.85 0
0.5 0.85 0
1 0.85 0
1.5 0.85 0
2 0.85 0
2.5 0.85 0
3 0.85 0
3.5 0.85 0
4 0.85 0
4.5 0.85 0
5 0.85 0
0 0.9 0
0.5 0.9 0
1 0.9 0
1.5 0.9 0
2 0.9 0
2.5 0.9 0
3 0.9 0
3.5 0.9 0
4 0.9 0
4.5 0.9 0
5 0.9 0
0 0.95 0
0.5 0.95 0
1 0.95 0
1.5 0.95 0
2 0.95 0
2.5 0.95 0
3 0.95 0
3.5 0.95 0
4 0.95 0
4.5 0.95 0
5 0.95 0
0 1 0
0.5 1 0
1 1 0
1.5 1 0
2 1 0
2.5 1 0
3 1 0
3.5 1 0
4 1 0
4.5 1 0
5 1 0
0 0 0.1
0.5 0 0.1
1 0 0.1
1.5 0 0.1
2 0 0.1
2.5 0 0.1
3 0 0.1
3.5 0 0.1
4 0 0.1
4.5 0 0.1
5 0 0.1
0 0.05 0.1
0.5 0.05 0.1
1 0.05 0.1
1.5 0.05 0.1
2 0.05 0.1
2.5 0.05 0.1
3 0.05 0.1
3.5 0.05 0.1
4 0.05 0.1
4.5 0.05 0.1
5 0.05 0.1
0 0.1 0.1
0.5 0.1 0.1
1 0.1 0.1
1.5 0.1 0.1
2 0.1 0.1
2.5 0.1 0.1
3 0.1 0.1
3.5 0.1 0.1
4 0.1 0.1
4.5 0.1 0.1
5 0.1 0.1
0 0.15 0.1
0.5 0.15 0.1
1 0.15 0.1
1.5 0.15 0.1
2 0.15 0.1
2.5 0.15 0.1
3 0.15 0.1
3.5 0.15 0.1
4 0.15 0.1
4.5 0.15 0.1
5 0.15 0.1
0 0.2 0.1
0.5 0.2 0.1
1 0.2 0.1
1.5 0.2 0.1
2 0.2 0.1
2.5 0.2 0.1
3 0.2 0.1
3.5 0.2 0.1
4 0.2 0.1
4.5 0.2 0.1
5 0.2 0.1
0 0.25 0.1
0.5 0.25 0.1
1 0.25 0.1
1.5 0.25 0.1
2 0.25 0.1
2.5 0.25 0.1
3 0.25 0.1
3.5 0.25 0.1
4 0.25 0.1
4.5 0.25 0.1
5 0.25 0.1
0 0.3 0.1
0.5 0.3 0.1
1 0.3 0.1
1.5 0.3 0.1
2 0.3 0.1
2.5 0.3 0.1
3 0.3 0.1
3.5 0.3 0.1
4 0.3 0.1
4.5 0.3 0.1
5 0.3 0.1
0 0.35 0.1
0.5 0.35 0.1
1 0.35 0.1
1.5 0.35 0.1
2 0.35 0.1
2.5 0.35 0.1
3 0.35 0.1
3.5 0.35 0.1
4 0.35 0.1
4.5 0.35 0.1
5 0.35 0.1
0 0.4 0.1
0.5 0.4 0.1
1 0.4 0.1
1.5 0.4 0.1
2 0.4 0.1
2.5 0.4 0.1
3 0.4 0.1
3.5 0.4 0.1
4 0.4 0.1
4.5 0.4 0.1
5 0.4 0.1
0 0.45 0.1
0.5 0.45 0.1
1 0.45 0.1
1.5 0.45 0.1
2 0.45 0.1
2.5 0.45 0.1
3 0.45 0.1
3.5 0.45 0.1
4 0.45 0.1
4.5 0.45 0.1
5 0.45 0.1
0 0.5 0.1
0.5 0.5 0.1
1 0.5 0.1
1.5 0.5 0.1
2 0.5 0.1
2.5 0.5 0.1
3 0.5 0.1
3.5 0.5 0.1
4 0.5 0.1
4.5 0.5 0.1
5 0.5 0.1
0 0.55 0.1
0.5 0.55 0.1
1 0.55 0.1
1.5 0.55 0.1
2 0.55 0.1
2.5 0.55 0.1
3 0.55 0.1
3.5 0.55 0.1
4 0.55 0.1
4.5 0.55 0.1
5 0.55 0.1
0 0.6 0.1
0.5 0.6 0.1
1 0.6 0.1
1.5 0.6 0.1
2 0.6 0.1
2.5 0.6 0.1
3 0.6 0.1
3.5 0.6 0.1
4 0.6 0.1
4.5 0.6 0.1
5 0.6 0.1
0 0.65 0.1
0.5 0.65 0.1
1 0.65 0.1
1.5 0.65 0.1
2 0.65 0.1
2.5 0.65 0.1
3 0.65 0.1
3.5 0.65 0.1
4 0.65 0.1
4.5 0.65 0.1
5 0.65 0.1
0 0.7 0.1
0.5 0.7 0.1
1 0.7 0.1
1.5 0.7 0.1
2 0.7 0.1
2.5 0.7 0.1
3 0.7 0.1
3.5 0.7 0.1
4 0.7 0.1
4.5 0.7 0.1
5 0.7 0.1
0 0.75 0.1
0.5 0.75 0.1
1 0.75 0.1
1.5 0.75 0.1
2 0.75 0.1
2.5 0.75 0.1
3 0.75 0.1
3.5 0.75 0.1
4 0.75 0.1
4.5 0.75 0.1
5 0.75 0.1
0 0.8 0.1
0.5 0.8 0.1
1 0.8 0.1
1.5 0.8 0.1
2 0.8 0.1
2.5 0.8 0.1
3 0.8 0.1
3.5 0.8 0.1
4 0.8 0.1
4.5 0.8 0.1
5 0.8 0.1
0 0.85 0.1
0.5 0.85 0.1
1 0.85 0.1
1.5 0.85 0.1
2 0.85 0.1
2.5 0.85 0.1
3 0.85 0.1
3.5 0.85 0.1
4 0.85 0.1
4.5 0.85 0.1
5 0.85 0.1
0 0.9 0.1
0.5 0.9 0.1
1 0.9 0.1
1.5 0.9 0.1
2 0.9 0.1
2.5 0.9 0.1
3 0.9 0.1
3.5 0.9 0.1
4 0.9 0.1
4.5 0.9 0.1
5 0.9 0.1
0 0.95 0.1
0.5 0.95 0.1
1 0.95 0.1
1.5 0.95 0.1
2 0.95 0.1
2.5 0.95 0.1
3 0.95 0.1
3.5 0.95 0.1
4 0.95 0.1
4.5 0.95 0.1
5 0.95 0.1
0 1 0.1
0.5 1 0.1
1 1 0.1
1.5 1 0.1
2 1 0.1
2.5 1 0.1
3 1 0.1
3.5 1 0.1
4 1 0.1
4.5 1 0.1
5 1 0.1
0 0 0.2
0.5 0 0.2
1 0 0.2
1.5 0 0.2
2 0 0.2
2.5 0 0.2
3 0 0.2
3.5 0 0.2
4 0 0.2
4.5 0 0.2
5 0 0.2
0 0.05 0.2
0.5 0.05 0.2
1 0.05 0.2
1.5 0.05 0.2
2 0.05 0.2
2.5 0.05 0.2
3 0.05 0.2
3.5 0.05 0.2
4 0.05 0.2
4.5 0.05 0.2
5 0.05 0.2
0 0.1 0.2
0.5 0.1 0.2
1 0.1 0.2
1.5 0.1 0.2
2 0.1 0.2
2.5 0.1 0.2
3 0.1 0.2
3.5 0.1 0.2
4 0.1 0.2
4.5 0.1 0.2
5 0.1 0.2
0 0.15 0.2
0.5 0.15 0.2
1 0.15 0.2
1.5 0.15 0.2
2 0.15 0.2
2.5 0.15 0.2
3 0.15 0.2
3.5 0.15 0.2
4 0.15 0.2
4.5 0.15 0.2
5 0.15 0.2
0 0.2 0.2
0.5 0.2 0.2
1 0.2 0.2
1.5 0.2 0.2
2 0.2 0.2
2.5 0.2 0.2
3 0.2 0.2
3.5 0.2 0.2
4 0.2 0.2
4.5 0.2 0.2
5 0.2 0.2
0 0.25 0.2
0.5 0.25 0.2
1 0.25 0.2
1.5 0.25 0.2
2 0.25 0.2
2.5 0.25 0.2
3 0.25 0.2
3.5 0.25 0.2
4 0.25 0.2
4.5 0.25 0.2
5 0.25 0.2
0 0.3 0.2
0.5 0.3 0.2
1 0.3 0.2
1.5 0.3 0.2
2 0.3 0.2
2.5 0.3 0.2
3 0.3 0.2
3.5 0.3 0.2
4 0.3 0.2
4.5 0.3 0.2
5 0.3 0.2
0 0.35 0.2
0.5 0.35 0.2
1 0.35 0.2
1.5 0.35 0.2
2 0.35 0.2
2.5 0.35 0.2
3 0.35 0.2
3.5 0.35 0.2
4 0.35 0.2
4.5 0.35 0.2
5 0.35 0.2
0 0.4 0.2
0.5 0.4 0.2
1 0.4 0.2
1.5 0.4 0.2
2 0.4 0.2
2.5 0.4 0.2
3 0.4 0.2
3.5 0.4 0.2
4 0.4 0.2
4.5 0.4 0.2
5 0.4 0.2
0 0.45 0.2
0.5 0.45 0.2
1 0.45 0.2
1.5 0.45 0.2
2 0.45 0.2
2.5 0.45 0.2
3 0.45 0.2
3.5 0.45 0.2
4 0.45 0.2
4.5 0.45 0.2
5 0.45 0.2
0 0.5 0.2
0.5 0.5 0.2
1 0.5 0.2
1.5 0.5 0.2
2 0.5 0.2
2.5 0.5 0.2
3 0.5 0.2
3.5 0.5 0.2
4 0.5 0.2
4.5 0.5 0.2
5 0.5 0.2
0 0.55 0.2
0.5 0.55 0.2
1 0.55 0.2
1.5 0.55 0.2
2 0.55 0.2
2.5 0.55 0.2
3 0.55 0.2
3.5 0.55 0.2
4 0.55 0.2
4.5 0.55 0.2
5 0.55 0.2
0 0.6 0.2
0.5 0.6 0.2
1 0.6 0.2
1.5 0.6 0.2
2 0.6 0.2
2.5 0.6 0.2
3 0.6 0.2
3.5 0.6 0.2
4 0.6 0.2
4.5 0.6 0.2
5 0.6 0.2
0 0.65 0.2
0.5 0.65 0.2
1 0.65 0.2
1.5 0.65 0.2
2 0.65 0.2
2.5 0.65 0.2
3 0.65 0.2
3.5 0.65 0.2
4 0.65 0.2
4.5 0.65 0.2
5 0.65 0.2
0 0.7 0.2
0.5 0.7 0.2
1 0.7 0.2
1.5 0.7 0.2
2 0.7 0.2
2.5 0.7 0.2
3 0.7 0.2
3.5 0.7 0.2
4 0.7 0.2
4.5 0.7 0.2
5 0.7 0.2
0 0.75 0.2
0.5 0.75 0.2
1 0.75 0.2
1.5 0.75 0.2
2 0.75 0.2
2.5 0.75 0.2
3 0.75 0.2
3.5 0.75 0.2
4 0.75 0.2
4.5 0.75 0.2
5 0.75 0.2
0 0.8 0.2
0.5 0.8 0.2
1 0.8 0.2
1.5 0.8 0.2
2 0.8 0.2
2.5 0.8 0.2
3 0.8 0.2
3.5 0.8 0.2
4 0.8 0.2
4.5 0.8 0.2
5 0.8 0.2
0 0.85 0.2
0.5 0.85 0.2
1 0.85 0.2
1.5 0.85 0.2
2 0.85 0.2
2.5 0.85 0.2
3 0.85 0.2
3.5 0.85 0.2
4 0.85 0.2
4.5 0.85 0.2
5 0.85 0.2
0 0.9 0.2
0.5 0.9 0.2
1 0.9 0.2
1.5 0.9 0.2
2 0.9 0.2
2.5 0.9 0.2
3 0.9 0.2
3.5 0.9 0.2
4 0.9 0.2
4.5 0.9 0.2
5 0.9 0.2
0 0.95 0.2
0.5 0.95 0.2
1 0.95 0.2
1.5 0.95 0.2
2 0.95 0.2
2.5 0.95 0.2
3 0.95 0.2
3.5 0.95 0.2
4 0.95 0.2
4.5 0.95 0.2
5 0.95 0.2
0 1 0.2
0.5 1 0.2
1 1 0.2
1.5 1 0.2
2 1 0.2
2.5 1 0.2
3 1 0.2
3.5 1 0.2
4 1 0.2
4.5 1 0.2
5 1 0.2
0 0 0.3
0.5 0 0.3
1 0 0.3
1.5 0 0.3
2 0 0.3
2.5 0 0.3
3 0 0.3
3.5 0 0.3
4 0 0.3
4.5 0 0.3
5 0 0.3
0 0.05 0.3
0.5 0.05 0.3
1 0.05 0.3
1.5 0.05 0.3
2 0.05 0.3
2.5 0.05 0.3
3 0.05 0.3
3.5 0.05 0.3
4 0.05 0.3
4.5 0.05 0.3
5 0.05 0.3
0 0.1 0.3
0.5 0.1 0.3
1 0.1 0.3
1.5 0.1 0.3
2 0.1 0.3
2.5 0.1 0.3
3 0.1 0.3
3.5 0.1 0.3
4 0.1 0.3
4.5 0.1 0.3
5 0.1 0.3
0 0.15 0.3
0.5 0.15 0.3
1 0.15 0.3
1.5 0.15 0.3
2 0.15 0.3
2.5 0.15 0.3
3 0.15 0.3
3.5 0.15 0.3
4 0.15 0.3
4.5 0.15 0.3
5 0.15 0.3
0 0.2 0.3
0.5 0.2 0.3
1 0.2 0.3
1.5 0.2 0.3
2 0.2 0.3
2.5 0.2 0.3
3 0.2 0.3
3.5 0.2 0.3
4 0.2 0.3
4.5 0.2 0.3
5 0.2 0.3
0 0.25 0.3
0.5 0.25 0.3
1 0.25 0.3
1.5 0.25 0.3
2 0.25 0.3
2.5 0.25 0.3
3 0.25 0.3
3.5 0.25 0.3
4 0.25 0.3
4.5 0.25 0.3
5 0.25 0.3
0 0.3 0.3
0.5 0.3 0.3
1 0.3 0.3
1.5 0.3 0.3
2 0.3 0.3
2.5 0.3 0.3
3 0.3 0.3
3.5 0.3 0.3
4 0.3 0.3
4.5 0.3 0.3
5 0.3 0.3
0 0.35 0.3
0.5 0.35 0.3
1 0.35 0.3
1.5 0.35 0.3
2 0.35 0.3
2.5 0.35 0.3
3 0.35 0.3
3.5 0.35 0.3
4 0.35 0.3
4.5 0.35 0.3
5 0.35 0.3
0 0.4 0.3
0.5 0.4 0.3
1 0.4 0.3
1.5 0.4 0.3
2 0.4 0.3
2.5 0.4 0.3
3 0.4 0.3
3.5 0.4 0.3
4 0.4 0.3
4.5 0.4 0.3
5 0.4 0.3
0 0.45 0.3
0.5 0.45 0.3
1 0.45 0.3
1.5 0.45 0.3
2 0.45 0.3
2.5 0.45 0.3
3 0.45 0.3
3.5 0.45 0.3
4 0.45 0.3
4.5 0.45 0.3
5 0.45 0.3
0 0.5 0.3
0.5 0.5 0.3
1 0.5 0.3
1.5 0.5 0.3
2 0.5 0.3
2.5 0.5 0.3
3 0.5 0.3
3.5 0.5 0.3
4 0.5 0.3
4.5 0.5 0.3
5 0.5 0.3
0 0.55 0.3
0.5 0.55 0.3
1 0.55 0.3
1.5 0.55 0.3
2 0.55 0.3
2.5 0.55 0.3
3 0.55 0.3
3.5 0.55 0.3
4 0.55 0.3
4.5 0.55 0.3
5 0.55 0.3
0 0.6 0.3
0.5 0.6 0.3
1 0.6 0.3
1.5 0.6 0.3
2 0.6 0.3
2.5 0.6 0.3
3 0.6 0.3
3.5 0.6 0.3
4 0.6 0.3
4.5 0.6 0.3
5 0.6 0.3
0 0.65 0.3
0.5 0.65 0.3
1 0.65 0.3
1.5 0.65 0.3
2 0.65 0.3
2.5 0.65 0.3
3 0.65 0.3
3.5 0.65 0.3
4 0.65 0.3
4.5 0.65 0.3
5 0.65 0.3
0 0.7 0.3
0.5 0.7 0.3
1 0.7 0.3
1.5 0.7 0.3
2 0.7 0.3
2.5 0.7 0.3
3 0.7 0.3
3.5 0.7 0.3
4 0.7 0.3
4.5 0.7 0.3
5 0.7 0.3
0 0.75 0.3
0.5 0.75 0.3
1 0.75 0.3
1.5 0.75 0.3
2 0.75 0.3
2.5 0.75 0.3
3 0.75 0.3
3.5 0.75 0.3
4 0.75 0.3
4.5 0.75 0.3
5 0.75 0.3
0 0.8 0.3
0.5 0.8 0.3
1 0.8 0.3
1.5 0.8 0.3
2 0.8 0.3
2.5 0.8 0.3
3 0.8 0.3
3.5 0.8 0.3
4 0.8 0.3
4.5 0.8 0.3
5 0.8 0.3
0 0.85 0.3
0.5 0.85 0.3
1 0.85 0.3
1.5 0.85 0.3
2 0.85 0.3
2.5 0.85 0.3
3 0.85 0.3
3.5 0.85 0.3
4 0.85 0.3
4.5 0.85 0.3
5 0.85 0.3
0 0.9 0.3
0.5 0.9 0.3
1 0.9 0.3
1.5 0.9 0.3
2 0.9 0.3
2.5 0.9 0.3
3 0.9 0.3
3.5 0.9 0.3
4 0.9 0.3
4.5 0.9 0.3
5 0.9 0.3
0 0.95 0.3
0.5 0.95 0.3
1 0.95 0.3
1.5 0.95 0.3
2 0.95 0.3
2.5 0.95 0.3
3 0.95 0.3
3.5 0.95 0.3
4 0.95 0.3
4.5 0.95 0.3
5 0.95 0.3
0 1 0.3
0.5 1 0.3
1 1 0.3
1.5 1 0.3
2 1 0.3
2.5 1 0.3
3 1 0.3
3.5 1 0.3
4 1 0.3
4.5 1 0.3
5 1 0.3
0 0 0.4
[...]
CELL_DATA 2000
SCALARS pressure float 1
LOOKUP_TABLE default
0
0
0.879064
0.952439
0.779146
0.625597
0.477421
0.33066
0.183554
0.0237828
0
0
0.876179
0.945375
0.778524
0.625467
0.477391
0.330655
0.183554
0.0258874
0
0
0.843066
0.941227
0.777574
0.625266
0.477344
0.330649
0.18362
0.0279989
0
0
0.829465
0.931865
0.77638
0.625008
0.477282
0.330641
0.183725
0.0297972
1.34705
1.48008
0.833093
0.922928
0.774962
0.624703
0.477208
0.330631
0.183843
0.0312552
1.3447
1.47837
0.851952
0.915023
0.773437
0.624364
0.477124
0.33062
0.183958
0.0324116
1.33856
1.47402
0.875834
0.908858
0.771904
0.624002
0.477033
0.330605
0.184061
0.0332991
1.32933
1.46717
0.904745
0.904471
0.770434
0.623627
0.476935
0.330587
0.184142
0.0339431
1.31958
1.45876
0.933267
0.901632
0.769082
0.623248
0.476833
0.330566
0.184196
0.034362
1.31105
1.44997
0.959358
0.899945
0.767865
0.622873
0.47673
0.330541
0.18422
0.0345679
1.30438
1.44149
0.982571
0.899093
0.766781
0.622509
0.476626
0.330513
0.184213
0.0345666
1.29991
1.43375
1.00278
0.898813
0.765821
0.622161
0.476524
0.330483
0.184174
0.0343581
1.29805
1.42696
1.02001
0.89889
0.764975
0.621832
0.476426
0.33045
0.184106
0.0339367
1.29885
1.42125
1.03438
0.899143
0.764228
0.621527
0.476333
0.330417
0.184012
0.0332903
1.30219
1.41662
1.04603
0.89943
0.763564
0.621248
0.476247
0.330384
0.183897
0.0324005
1.30791
1.41302
1.05513
0.899636
0.762972
0.620996
0.476169
0.330352
0.183771
0.0312421
1.31552
1.41041
1.06184
0.899675
0.76244
0.620774
0.476101
0.330325
0.183643
0.0297823
1.32337
1.40863
1.06634
0.899492
0.761962
0.620585
0.476044
0.330301
0.18353
0.0279825
1.32879
1.40776
1.06883
0.899104
0.761553
0.620435
0.476001
0.330285
0.183459
0.0258698
1.3309
1.40772
1.06925
0.898564
0.761246
0.620334
0.475973
0.330276
0.183456
0.0237645
0
0
0.888443
0.950279
0.779158
0.625567
0.477413
0.330672
0.183728
0.0277889
0
0
0.883635
0.943821
0.778243
0.625397
0.477375
0.330663
0.18369
0.0310599
0
0
0.85175
0.939747
0.777261
0.625185
0.477326
0.330655
0.183802
0.0334161
0
0
0.856959
0.932964
0.776011
0.624927
0.477265
0.330649
0.183933
0.0352383
1.33311
1.47827
0.809205
0.923153
0.774594
0.624629
0.477193
0.330641
0.184065
0.0367149
1.33021
1.49487
0.819683
0.912994
0.77308
0.624301
0.477111
0.33063
0.18419
0.0378855
1.32501
1.48955
0.853349
0.90626
0.77159
0.623952
0.477022
0.330617
0.184297
0.0387835
1.31814
1.47748
0.888163
0.902443
0.7702
0.62359
0.476928
0.330601
0.184381
0.0394348
1.31043
1.465
0.921306
0.900186
0.768929
0.623226
0.47683
0.330581
0.184437
0.0398582
1.30297
1.45299
0.951283
0.898961
0.767782
0.622865
0.476729
0.330557
0.184462
0.0400662
1.29715
1.44198
0.977257
0.898476
0.766759
0.622514
0.476629
0.33053
0.184455
0.0400649
1.2932
1.43242
0.999396
0.898481
0.765852
0.622179
0.476531
0.3305
0.184416
0.0398544
1.29117
1.42459
1.018
0.898774
0.76505
0.621863
0.476435
0.330467
0.184347
0.0394286
1.29111
1.41851
1.03335
0.899192
0.76434
0.621569
0.476345
0.330434
0.18425
0.038775
1.29333
1.41398
1.04566
0.899603
0.763708
0.621299
0.476262
0.330401
0.18413
0.0378748
1.29781
1.4106
1.05516
0.899904
0.763142
0.621055
0.476186
0.330369
0.183995
0.0367023
1.30334
1.40797
1.06207
0.900018
0.76263
0.620839
0.476119
0.330341
0.183854
0.0352239
1.30896
1.40595
1.06656
0.899888
0.762169
0.620654
0.476063
0.330317
0.183715
0.0334003
1.31378
1.40504
1.06893
0.899461
0.761741
0.620496
0.476017
0.3303
0.183596
0.0310429
1.31724
1.40627
1.06917
0.898724
0.761353
0.620371
0.475984
0.330291
0.18363
0.027771
0
0
0.899304
0.951106
0.779306
0.625543
0.477404
0.330693
0.184016
0.030938
0
0
0.893859
0.945453
0.778353
0.625364
0.477365
0.330684
0.18399
0.034431
0
0
0.866887
0.942347
0.777387
0.625146
0.477313
0.330678
0.184123
0.0369181
0
0
0.874003
0.937028
0.776198
0.624891
0.477253
0.330673
0.184271
0.0388145
1.31852
1.46985
0.802779
0.927555
0.774826
0.624598
0.477182
0.330667
0.184417
0.0403366
1.31546
1.50474
0.786966
0.915594
0.773291
0.624274
0.477103
0.330658
0.18455
0.0415373
1.3131
1.51214
0.816728
0.905984
0.771697
0.623929
0.477016
0.330646
0.184664
0.0424549
1.31403
1.49996
0.86273
0.900359
0.770188
0.623573
0.476924
0.330631
0.184752
0.0431188
1.31687
1.47966
0.904226
0.897886
0.768854
0.623214
0.476828
0.330612
0.184811
0.0435498
1.31972
1.45932
0.9393
0.897064
0.7677
0.622861
0.476731
0.330589
0.184837
0.0437614
1.32133
1.44198
0.969191
0.897048
0.766698
0.622519
0.476633
0.330562
0.184831
0.0437602
1.32091
1.42845
0.994361
0.897466
0.765821
0.622192
0.476537
0.330533
0.18479
0.0435462
1.31872
1.41863
1.01525
0.898099
0.765053
0.621884
0.476445
0.330501
0.184718
0.0431128
1.31475
1.41222
1.0323
0.898792
0.764376
0.621599
0.476357
0.330467
0.184618
0.0424467
1.30908
1.40871
1.04584
0.899427
0.763774
0.621336
0.476275
0.330434
0.184492
0.0415269
1.30287
1.4072
1.05603
0.899909
0.763236
0.621099
0.476201
0.330401
0.184348
0.0403244
1.29784
1.40631
1.06304
0.90016
0.762751
0.620889
0.476136
0.330372
0.184193
0.0388005
1.29617
1.40524
1.06732
0.900104
0.762306
0.620706
0.47608
0.330347
0.184037
0.0369027
1.29869
1.40471
1.06949
0.899685
0.761875
0.620546
0.476033
0.330328
0.183898
0.0344144
1.30261
1.40636
1.0697
0.898911
0.761466
0.620414
0.475998
0.330318
0.18392
0.0309205
0
0
0.905081
0.952696
0.779498
0.625536
0.477399
0.330715
0.18427
0.0329325
0
0
0.899979
0.947332
0.77855
0.625355
0.477359
0.330707
0.184249
0.0364723
0
0
0.873285
0.944814
0.777612
0.625138
0.477308
0.330702
0.184389
0.0390046
0
0
0.877171
0.940164
0.776476
0.624886
0.477248
0.330698
0.184545
0.0409369
1.31104
1.47563
0.801899
0.930974
0.775157
0.624599
0.477179
0.330692
0.184698
0.0424862
1.30891
1.51467
0.773885
0.918613
0.773647
0.624281
0.4771
0.330685
0.184838
0.043707
1.31003
1.52772
0.788285
0.90744
0.772002
0.623938
0.477015
0.330674
0.184956
0.0446391
1.31892
1.5177
0.831621
0.899889
0.77037
0.62358
0.476924
0.33066
0.185048
0.045313
1.33447
1.49315
0.882473
0.896315
0.768902
0.623219
0.47683
0.330641
0.185108
0.0457502
1.35157
1.46502
0.926122
0.895253
0.767655
0.622864
0.476733
0.330619
0.185136
0.0459647
1.36446
1.43939
0.961076
0.89537
0.766604
0.622521
0.476637
0.330593
0.185129
0.0459635
1.36991
1.41944
0.989688
0.896035
0.765712
0.622196
0.476543
0.330563
0.185088
0.0457466
1.36766
1.40672
1.01329
0.896951
0.764946
0.621891
0.476451
0.330531
0.185014
0.0453071
1.35756
1.40089
1.0322
0.897953
0.764287
0.621608
0.476365
0.330498
0.18491
0.0446311
1.34014
1.4
1.04654
0.898899
0.763723
0.621351
0.476284
0.330464
0.18478
0.0436968
1.31926
1.40148
1.05684
0.899646
0.76323
0.62112
0.476211
0.330431
0.184631
0.0424742
1.30156
1.40338
1.06378
0.900077
0.762781
0.620915
0.476147
0.330401
0.184469
0.0409232
1.29227
1.40447
1.06797
0.900118
0.762355
0.620734
0.476091
0.330375
0.184304
0.0389895
1.29165
1.40494
1.07006
0.89974
0.761932
0.620575
0.476044
0.330355
0.184158
0.036456
1.29481
1.40701
1.07027
0.898981
0.761524
0.620442
0.476008
0.330344
0.184175
0.0329153
0
0
0.90676
0.953683
0.779625
0.625535
0.477397
0.330728
0.184414
0.0338895
0
0
0.901452
0.948428
0.778683
0.625355
0.477357
0.330721
0.184393
0.0374408
0
0
0.873997
0.946149
0.777761
0.625138
0.477306
0.330716
0.184536
0.0399882
0
0
0.876598
0.941767
0.77665
0.624889
0.477247
0.330713
0.184696
0.0419346
1.30843
1.48133
0.800025
0.932708
0.775357
0.624605
0.477177
0.330708
0.184852
0.0434958
1.30702
1.52155
0.769787
0.920257
0.773866
0.624289
0.4771
0.330701
0.184994
0.0447259
1.3109
1.53566
0.779426
0.908777
0.772223
0.62395
0.477015
0.33069
0.185114
0.0456652
1.32544
1.5259
0.816134
0.900545
0.770559
0.623594
0.476925
0.330676
0.185207
0.046344
1.34874
1.49981
0.865029
0.895961
0.769009
0.623231
0.476831
0.330659
0.185269
0.0467845
1.37447
1.46789
0.913646
0.894167
0.767659
0.622869
0.476735
0.330636
0.185297
0.0470006
1.39523
1.43767
0.955237
0.894069
0.766525
0.622521
0.476639
0.330611
0.185291
0.0469994
1.40492
1.41357
0.988189
0.894853
0.765588
0.622191
0.476545
0.330581
0.185249
0.0467809
1.40249
1.39872
1.01348
0.896043
0.764823
0.621886
0.476454
0.330549
0.185174
0.0463382
1.38784
1.39315
1.03264
0.897339
0.764197
0.621608
0.476369
0.330516
0.185069
0.0456572
1.36235
1.39385
1.04692
0.898523
0.76367
0.621356
0.476289
0.330482
0.184937
0.0447159
1.33281
1.39753
1.05722
0.899438
0.763207
0.621128
0.476216
0.330448
0.184784
0.0434839
1.30744
1.40145
1.06417
0.899976
0.762778
0.620925
0.476152
0.330418
0.184619
0.0419211
1.29265
1.40396
1.06833
0.90008
0.762366
0.620747
0.476097
0.330391
0.184452
0.0399732
1.28946
1.40516
1.07038
0.899735
0.76195
0.620587
0.47605
0.330371
0.184303
0.0374246
1.29198
1.40753
1.07061
0.89899
0.761544
0.620455
0.476014
0.33036
0.184319
0.0338724
0
0
0.90676
0.953683
0.779625
0.625535
0.477397
0.330728
0.184414
0.0338895
0
0
0.901452
0.948428
0.778683
0.625355
0.477357
0.330721
0.184393
0.0374408
0
0
0.873997
0.946149
0.777761
0.625138
0.477306
0.330716
0.184536
0.0399882
0
0
0.876598
0.941767
0.77665
0.624889
0.477247
0.330713
0.184696
0.0419346
1.30843
1.48133
0.800025
0.932708
0.775357
0.624605
0.477177
0.330708
0.184852
0.0434958
1.30702
1.52155
0.769787
0.920257
0.773866
0.624289
0.4771
0.330701
0.184994
0.0447259
1.3109
1.53566
0.779426
0.908777
0.772223
0.62395
0.477015
0.33069
0.185114
0.0456652
1.32544
1.5259
0.816134
0.900545
0.770559
0.623594
0.476925
0.330676
0.185207
0.046344
1.34874
1.49981
0.865029
0.895961
0.769009
0.623231
0.476831
0.330659
0.185269
0.0467845
1.37447
1.46789
0.913646
0.894167
0.767659
0.622869
0.476735
0.330636
0.185297
0.0470006
1.39523
1.43767
0.955237
0.894069
0.766525
0.622521
0.476639
0.330611
0.185291
0.0469994
1.40492
1.41357
0.988189
0.894853
0.765588
0.622191
0.476545
0.330581
0.185249
0.0467809
1.40249
1.39872
1.01348
0.896043
0.764823
0.621886
0.476454
0.330549
0.185174
0.0463382
1.38784
1.39315
1.03264
0.897339
0.764197
0.621608
0.476369
0.330516
0.185069
0.0456572
1.36235
1.39385
1.04692
0.898523
0.76367
0.621356
0.476289
0.330482
0.184937
0.0447159
1.33281
1.39753
1.05722
0.899438
0.763207
0.621128
0.476216
0.330448
0.184784
0.0434839
1.30744
1.40145
1.06417
0.899976
0.762778
0.620925
0.476152
0.330418
0.184619
0.0419211
1.29265
1.40396
1.06833
0.90008
0.762366
0.620747
0.476097
0.330391
0.184452
0.0399732
1.28946
1.40516
1.07038
0.899735
0.76195
0.620587
0.47605
0.330371
0.184303
0.0374246
1.29198
1.40753
1.07061
0.89899
0.761544
0.620455
0.476014
0.33036
0.184319
0.0338724
0
0
0.905081
0.952696
0.779498
0.625536
0.477399
0.330715
0.18427
0.0329325
0
0
0.899979
0.947332
0.77855
0.625355
0.477359
0.330707
0.184249
0.0364723
0
0
0.873285
0.944814
0.777612
0.625138
0.477308
0.330702
0.184389
0.0390046
0
0
0.877171
0.940164
0.776476
0.624886
0.477248
0.330698
0.184545
0.0409369
1.31104
1.47563
0.801899
0.930974
0.775157
0.624599
0.477179
0.330692
0.184698
0.0424862
1.30891
1.51467
0.773885
0.918613
0.773647
0.624281
0.4771
0.330685
0.184838
0.043707
1.31003
1.52772
0.788285
0.90744
0.772002
0.623938
0.477015
0.330674
0.184956
0.0446391
1.31892
1.5177
0.831621
0.899889
0.77037
0.62358
0.476924
0.33066
0.185048
0.045313
1.33447
1.49315
0.882473
0.896315
0.768902
0.623219
0.47683
0.330641
0.185108
0.0457502
1.35157
1.46502
0.926122
0.895253
0.767655
0.622864
0.476733
0.330619
0.185136
0.0459647
1.36446
1.43939
0.961076
0.89537
0.766604
0.622521
0.476637
0.330593
0.185129
0.0459635
1.36991
1.41944
0.989688
0.896035
0.765712
0.622196
0.476543
0.330563
0.185088
0.0457466
1.36766
1.40672
1.01329
0.896951
0.764946
0.621891
0.476451
0.330531
0.185014
0.0453071
1.35756
1.40089
1.0322
0.897953
0.764287
0.621608
0.476365
0.330498
0.18491
0.0446311
1.34014
1.4
1.04654
0.898899
0.763723
0.621351
0.476284
0.330464
0.18478
0.0436968
1.31926
1.40148
1.05684
0.899646
0.76323
0.62112
0.476211
0.330431
0.184631
0.0424742
1.30156
1.40338
1.06378
0.900077
0.762781
0.620915
0.476147
0.330401
0.184469
0.0409232
1.29227
1.40447
1.06797
0.900118
0.762355
0.620734
0.476091
0.330375
0.184304
0.0389895
1.29165
1.40494
1.07006
0.89974
0.761932
0.620575
0.476044
0.330355
0.184158
0.036456
1.29481
1.40701
1.07027
0.898981
0.761524
0.620442
0.476008
0.330344
0.184175
0.0329153
0
0
0.899304
0.951106
0.779306
0.625543
0.477404
0.330693
0.184016
0.030938
0
0
0.893859
0.945453
0.778353
0.625364
0.477365
0.330684
0.18399
0.034431
0
0
0.866887
0.942347
0.777387
0.625146
0.477313
0.330678
0.184123
0.0369181
0
0
0.874003
0.937028
0.776198
0.624891
0.477253
0.330673
0.184271
0.0388145
1.31852
1.46985
0.802779
0.927555
0.774826
0.624598
0.477182
0.330667
0.184417
0.0403366
1.31546
1.50474
0.786966
0.915594
0.773291
0.624274
0.477103
0.330658
0.18455
0.0415373
1.3131
1.51214
0.816728
0.905984
0.771697
0.623929
0.477016
0.330646
0.184664
0.0424549
1.31403
1.49996
0.86273
0.900359
0.770188
0.623573
0.476924
0.330631
0.184752
0.0431188
1.31687
1.47966
0.904226
0.897886
0.768854
0.623214
0.476828
0.330612
0.184811
0.0435498
1.31972
1.45932
0.9393
0.897064
0.7677
0.622861
0.476731
0.330589
0.184837
0.0437614
1.32133
1.44198
0.969191
0.897048
0.766698
0.622519
0.476633
0.330562
0.184831
0.0437602
1.32091
1.42845
0.994361
0.897466
0.765821
0.622192
0.476537
0.330533
0.18479
0.0435462
1.31872
1.41863
1.01525
0.898099
0.765053
0.621884
0.476445
0.330501
0.184718
0.0431128
1.31475
1.41222
1.0323
0.898792
0.764376
0.621599
0.476357
0.330467
0.184618
0.0424467
1.30908
1.40871
1.04584
0.899427
0.763774
0.621336
0.476275
0.330434
0.184492
0.0415269
1.30287
1.4072
1.05603
0.899909
0.763236
0.621099
0.476201
0.330401
0.184348
0.0403244
1.29784
1.40631
1.06304
0.90016
0.762751
0.620889
0.476136
0.330372
0.184193
0.0388005
1.29617
1.40524
1.06732
0.900104
0.762306
0.620706
0.47608
0.330347
0.184037
0.0369027
1.29869
1.40471
1.06949
0.899685
0.761875
0.620546
0.476033
0.330328
0.183898
0.0344144
1.30261
1.40636
1.0697
0.898911
0.761466
0.620414
0.475998
0.330318
0.18392
0.0309205
0
0
0.888443
0.950279
0.779158
0.625567
0.477413
0.330672
0.183728
0.0277889
0
0
0.883635
0.943821
0.778243
0.625397
0.477375
0.330663
0.18369
0.0310599
0
0
0.85175
0.939747
0.777261
0.625185
0.477326
0.330655
0.183802
0.0334161
0
0
0.856959
0.932964
0.776011
0.624927
0.477265
0.330649
0.183933
0.0352383
1.33311
1.47827
0.809205
0.923153
0.774594
0.624629
0.477193
0.330641
0.184065
0.0367149
1.33021
1.49487
0.819683
0.912994
0.77308
0.624301
0.477111
0.33063
0.18419
0.0378855
1.32501
1.48955
0.853349
0.90626
0.77159
0.623952
0.477022
0.330617
0.184297
0.0387835
1.31814
1.47748
0.888163
0.902443
0.7702
0.62359
0.476928
0.330601
0.184381
0.0394348
1.31043
1.465
0.921306
0.900186
0.768929
0.623226
0.47683
0.330581
0.184437
0.0398582
1.30297
1.45299
0.951283
0.898961
0.767782
0.622865
0.476729
0.330557
0.184462
0.0400662
1.29715
1.44198
0.977257
0.898476
0.766759
0.622514
0.476629
0.33053
0.184455
0.0400649
1.2932
1.43242
0.999396
0.898481
0.765852
0.622179
0.476531
0.3305
0.184416
0.0398544
1.29117
1.42459
1.018
0.898774
0.76505
0.621863
0.476435
0.330467
0.184347
0.0394286
1.29111
1.41851
1.03335
0.899192
0.76434
0.621569
0.476345
0.330434
0.18425
0.038775
1.29333
1.41398
1.04566
0.899603
0.763708
0.621299
0.476262
0.330401
0.18413
0.0378748
1.29781
1.4106
1.05516
0.899904
0.763142
0.621055
0.476186
0.330369
0.183995
0.0367023
1.30334
1.40797
1.06207
0.900018
0.76263
0.620839
0.476119
0.330341
0.183854
0.0352239
1.30896
1.40595
1.06656
0.899888
0.762169
0.620654
0.476063
0.330317
0.183715
0.0334003
1.31378
1.40504
1.06893
0.899461
0.761741
0.620496
0.476017
0.3303
0.183596
0.0310429
1.31724
1.40627
1.06917
0.898724
0.761353
0.620371
0.475984
0.330291
0.18363
0.027771
0
0
0.879064
0.952439
0.779146
0.625597
0.477421
0.33066
0.183554
0.0237828
0
0
0.876179
0.945375
0.778524
0.625467
0.477391
0.330655
0.183554
0.0258874
0
0
0.843066
0.941227
0.777574
0.625266
0.477344
0.330649
0.18362
0.0279989
0
0
0.829465
0.931865
0.77638
0.625008
0.477282
0.330641
0.183725
0.0297972
1.34705
1.48008
0.833093
0.922928
0.774962
0.624703
0.477208
0.330631
0.183843
0.0312552
1.3447
1.47837
0.851952
0.915023
0.773437
0.624364
0.477124
0.33062
0.183958
0.0324116
1.33856
1.47402
0.875834
0.908858
0.771904
0.624002
0.477033
0.330605
0.184061
0.0332991
1.32933
1.46717
0.904745
0.904471
0.770434
0.623627
0.476935
0.330587
0.184142
0.0339431
1.31958
1.45876
0.933267
0.901632
0.769082
0.623248
0.476833
0.330566
0.184196
0.034362
1.31105
1.44997
0.959358
0.899945
0.767865
0.622873
0.47673
0.330541
0.18422
0.0345679
1.30438
1.44149
0.982571
0.899093
0.766781
0.622509
0.476626
0.330513
0.184213
0.0345666
1.29991
1.43375
1.00278
0.898813
0.765821
0.622161
0.476524
0.330483
0.184174
0.0343581
1.29805
1.42696
1.02001
0.89889
0.764975
0.621832
0.476426
0.33045
0.184106
0.0339367
1.29885
1.42125
1.03438
0.899143
0.764228
0.621527
0.476333
0.330417
0.184012
0.0332903
1.30219
1.41662
1.04603
0.89943
0.763564
0.621248
0.476247
0.330384
0.183897
0.0324005
1.30791
1.41302
1.05513
0.899636
0.762972
0.620996
0.476169
0.330352
0.183771
0.0312421
1.31552
1.41041
1.06184
0.899675
0.76244
0.620774
0.476101
0.330325
0.183643
0.0297823
1.32337
1.40863
1.06634
0.899492
0.761962
0.620585
0.476044
0.330301
0.18353
0.0279825
1.32879
1.40776
1.06883
0.899104
0.761553
0.620435
0.476001
0.330285
0.183459
0.0258698
1.3309
1.40772
1.06925
0.898564
0.761246
0.620334
0.475973
0.330276
0.183456
0.0237645

VECTORS velocity float
0 0 0
0 0 0
0.715432 -0.0300914 -0.00297729
0.648697 -0.00222771 0.00105777
0.671233 -0.000621105 0.000132602
0.678056 -0.000141948 2.90226e-05
0.679614 -3.16008e-05 6.53411e-06
0.68 -8.8116e-06 -2.98665e-06
0.680396 -4.06883e-06 -5.04864e-05
0.70553 -0.00171327 -0.0015417
0 0 0
0 0 0
-0.0978419 -0.0891234 -0.00242932
0.668737 -0.0114324 0.000849197
0.743374 -0.00225038 0.000193751
0.754246 -0.000481177 4.28934e-05
0.756386 -0.000106154 9.42467e-06
0.756897 -2.92597e-05 -2.44585e-06
0.757713 -5.09612e-05 -5.17592e-05
0.768292 -0.00344252 -0.00194649
0 0 0
0 0 0
0.739485 -0.151556 -0.00103696
0.712638 -0.0219908 0.000701345
0.753036 -0.00415229 0.000169266
0.762879 -0.000874745 4.22117e-05
0.765017 -0.000192583 9.57893e-06
0.765532 -5.23262e-05 -2.63599e-06
0.766269 -0.000125195 -5.92273e-05
0.774326 -0.00319623 -0.00201381
0 0 0
0 0 0
-0.0837598 -0.21654 -9.0346e-05
0.688119 -0.0313118 2.78288e-05
0.753861 -0.00596318 0.000137292
0.764007 -0.00125676 3.91909e-05
0.766032 -0.00027685 9.00822e-06
0.766512 -7.39584e-05 -3.01065e-06
0.767107 -0.00017178 -6.53273e-05
0.77507 -0.00266386 -0.00203703
0.385867 -0.0161081 -0.0346088
0.759044 0.00841078 -0.024692
0.741118 -0.248068 0.0114741
0.716644 -0.0408913 0.00117326
0.756047 -0.00765347 0.000172113
0.764381 -0.00160708 3.66302e-05
0.766168 -0.000354113 8.07159e-06
0.766595 -9.26888e-05 -3.45197e-06
0.767068 -0.000189856 -6.84119e-05
0.775246 -0.00215051 -0.00204774
0.469166 -0.0431366 -0.042936
0.91863 0.0173931 -0.0262593
0.886702 -0.240507 0.0163066
0.741204 -0.0469589 0.00205327
0.758367 -0.00903753 0.000191707
0.764743 -0.00191039 3.23274e-05
0.766246 -0.000421678 6.81868e-06
0.766608 -0.000107823 -3.9443e-06
0.766982 -0.0001864 -7.02893e-05
0.775356 -0.00168854 -0.00205469
0.516626 -0.0587666 -0.0488178
0.939579 0.016211 -0.0228461
0.91215 -0.222902 0.0118241
0.754871 -0.0502384 0.00172006
0.760481 -0.010096 0.000156277
0.765141 -0.00215839 2.53252e-05
0.76633 -0.000477635 5.30185e-06
0.76662 -0.000118996 -4.45263e-06
0.766913 -0.000166827 -7.1464e-05
0.77544 -0.00127041 -0.00205926
0.555534 -0.0630389 -0.0535345
0.937757 0.0124782 -0.0198266
0.913053 -0.201899 0.00673417
0.764881 -0.0514004 0.00112947
0.762616 -0.0108261 0.000109472
0.765578 -0.00234495 1.76523e-05
0.766424 -0.000520483 3.64081e-06
0.766635 -0.000126066 -4.95629e-06
0.766865 -0.000135484 -7.22089e-05
0.775503 -0.000885743 -0.00206219
0.587146 -0.0580608 -0.0573756
0.933394 0.00903397 -0.0180252
0.910713 -0.179947 0.00357861
0.773603 -0.0508775 0.000663924
0.764802 -0.0112258 6.37868e-05
0.766041 -0.00246572 9.88913e-06
0.766524 -0.00054912 1.90432e-06
0.766653 -0.000129068 -5.44126e-06
0.766835 -9.59796e-05 -7.26737e-05
0.775544 -0.000524488 -0.00206394
0.611489 -0.0458384 -0.060511
0.929261 0.00690336 -0.0170756
0.908143 -0.158475 0.0016
0.781236 -0.0490384 0.000339809
0.766959 -0.0113029 2.41064e-05