# vtk DataFile Version 2.0
TestTestTest
ASCII

DATASET STRUCTURED_GRID
DIMENSIONS 11 21 11
POINTS 2541 float
0 0 0
0.5 0 0
1 0 0
1.5 0 0
2 0 0
2.5 0 0
3 0 0
3.5 0 0
4 0 0
4.5 0 0
5 0 0
0 0.05 0
0.5 0.05 0
1 0.05 0
1.5 0.05 0
2 0.05 0
2.5 0.05 0
3 0.05 0
3.5 0.05 0
4 0.05 0
4.5 0.05 0
5 0.05 0
0 0.1 0
0.5 0.1 0
1 0.1 0
1.5 0.1 0
2 0.1 0
2.5 0.1 0
3 0.1 0
3.5 0.1 0
4 0.1 0
4.5 0.1 0
5 0.1 0
0 0.15 0
0.5 0.15 0
1 0.15 0
1.5 0.15 0
2 0.15 0
2.5 0.15 0
3 0.15 0
3.5 0.15 0
4 0.15 0
4.5 0.15 0
5 0.15 0
0 0.2 0
0.5 0.2 0
1 0.2 0
1.5 0.2 0
2 0.2 0
2.5 0.2 0
3 0.2 0
3.5 0.2 0
4 0.2 0
4.5 0.2 0
5 0.2 0
0 0.25 0
0.5 0.25 0
1 0.25 0
1.5 0.25 0
2 0.25 0
2.5 0.25 0
3 0.25 0
3.5 0.25 0
4 0.25 0
4.5 0.25 0
5 0.25 0
0 0.3 0
0.5 0.3 0
1 0.3 0
1.5 0.3 0
2 0.3 0
2.5 0.3 0
3 0.3 0
3.5 0.3 0
4 0.3 0
4.5 0.3 0
5 0.3 0
0 0.35 0
0.5 0.35 0
1 0.35 0
1.5 0.35 0
2 0.35 0
2.5 0.35 0
3 0.35 0
3.5 0.35 0
4 0.35 0
4.5 0.35 0
5 0.35 0
0 0.4 0
0.5 0.4 0
1 0.4 0
1.5 0.4 0
2 0.4 0
2.5 0.4 0
3 0.4 0
3.5 0.4 0
4 0.4 0
4.5 0.4 0
5 0.4 0
0 0.45 0
0.5 0.45 0
1 0.45 0
1.5 0.45 0
2 0.45 0
2.5 0.45 0
3 0.45 0
3.5 0.45 0
4 0.45 0
4.5 0.45 0
5 0.45 0
0 0.5 0
0.5 0.5 0
1 0.5 0
1.5 0.5 0
2 0.5 0
2.5 0.5 0
3 0.5 0
3.5 0.5 0
4 0.5 0
4.5 0.5 0
5 0.5 0
0 0.55 0
0.5 0.55 0
1 0.55 0
1.5 0.55 0
2 0.55 0
2.5 0.55 0
3 0.55 0
3.5 0.55 0
4 0.55 0
4.5 0.55 0
5 0.55 0
0 0.6 0
0.5 0.6 0
1 0.6 0
1.5 0.6 0
2 0.6 0
2.5 0.6 0
3 0.6 0
3.5 0.6 0
4 0.6 0
4.5 0.6 0
5 0.6 0
0 0.65 0
0.5 0.65 0
1 0.65 0
1.5 0.65 0
2 0.65 0
2.5 0.65 0
3 0.65 0
3.5 0.65 0
4 0.65 0
4.5 0.65 0
5 0.65 0
0 0.7 0
0.5 0.7 0
1 0.7 0
1.5 0.7 0
2 0.7 0
2.5 0.7 0
3 0.7 0
3.5 0.7 0
4 0.7 0
4.5 0.7 0
5 0.7 0
0 0.75 0
0.5 0.75 0
1 0.75 0
1.5 0.75 0
2 0.75 0
2.5 0.75 0
3 0.75 0
3.5 0.75 0
4 0.75 0
4.5 0.75 0
5 0.75 0
0 0.8 0
0.5 0.8 0
1 0.8 0
1.5 0.8 0
2 0.8 0
2.5 0.8 0
3 0.8 0
3.5 0.8 0
4 0.8 0
4.5 0.8 0
5 0.8 0
0 0.85 0
0.5 0.85 0
1 0.85 0
1.5 0.85 0
2 0.85 0
2.5 0.85 0
3 0.85 0
3.5 0.85 0
4 0.85 0
4.5 0.85 0
5 0.85 0
0 0.9 0
0.5 0.9 0
1 0.9 0
1.5 0.9 0
2 0.9 0
2.5 0.9 0
3 0.9 0
3.5 0.9 0
4 0.9 0
4.5 0.9 0
5 0.9 0
0 0.95 0
0.5 0.95 0
1 0.95 0
1.5 0.95 0
2 0.95 0
2.5 0.95 0
3 0.95 0
3.5 0.95 0
4 0.95 0
4.5 0.95 0
5 0.95 0
0 1 0
0.5 1 0
1 1 0
1.5 1 0
2 1 0
2.5 1 0
3 1 0
3.5 1 0
4 1 0
4.5 1 0
5 1 0
0 0 0.1
0.5 0 0.1
1 0 0.1
1.5 0 0.1
2 0 0.1
2.5 0 0.1
3 0 0.1
3.5 0 0.1
4 0 0.1
4.5 0 0.1
5 0 0.1
0 0.05 0.1
0.5 0.05 0.1
1 0.05 0.1
1.5 0.05 0.1
2 0.05 0.1
2.5 0.05 0.1
3 0.05 0.1
3.5 0.05 0.1
4 0.05 0.1
4.5 0.05 0.1
5 0.05 0.1
0 0.1 0.1
0.5 0.1 0.1
1 0.1 0.1
1.5 0.1 0.1
2 0.1 0.1
2.5 0.1 0.1
3 0.1 0.1
3.5 0.1 0.1
4 0.1 0.1
4.5 0.1 0.1
5 0.1 0.1
0 0.15 0.1
0.5 0.15 0.1
1 0.15 0.1
1.5 0.15 0.1
2 0.15 0.1
2.5 0.15 0.1
3 0.15 0.1
3.5 0.15 0.1
4 0.15 0.1
4.5 0.15 0.1
5 0.15 0.1
0 0.2 0.1
0.5 0.2 0.1
1 0.2 0.1
1.5 0.2 0.1
2 0.2 0.1
2.5 0.2 0.1
3 0.2 0.1
3.5 0.2 0.1
4 0.2 0.1
4.5 0.2 0.1
5 0.2 0.1
0 0.25 0.1
0.5 0.25 0.1
1 0.25 0.1
1.5 0.25 0.1
2 0.25 0.1
2.5 0.25 0.1
3 0.25 0.1
3.5 0.25 0.1
4 0.25 0.1
4.5 0.25 0.1
5 0.25 0.1
0 0.3 0.1
0.5 0.3 0.1
1 0.3 0.1
1.5 0.3 0.1
2 0.3 0.1
2.5 0.3 0.1
3 0.3 0.1
3.5 0.3 0.1
4 0.3 0.1
4.5 0.3 0.1
5 0.3 0.1
0 0.35 0.1
0.5 0.35 0.1
1 0.35 0.1
1.5 0.35 0.1
2 0.35 0.1
2.5 0.35 0.1
3 0.35 0.1
3.5 0.35 0.1
4 0.35 0.1
4.5 0.35 0.1
5 0.35 0.1
0 0.4 0.1
0.5 0.4 0.1
1 0.4 0.1
1.5 0.4 0.1
2 0.4 0.1
2.5 0.4 0.1
3 0.4 0.1
3.5 0.4 0.1
4 0.4 0.1
4.5 0.4 0.1
5 0.4 0.1
0 0.45 0.1
0.5 0.45 0.1
1 0.45 0.1
1.5 0.45 0.1
2 0.45 0.1
2.5 0.45 0.1
3 0.45 0.1
3.5 0.45 0.1
4 0.45 0.1
4.5 0.45 0.1
5 0.45 0.1
0 0.5 0.1
0.5 0.5 0.1
1 0.5 0.1
1.5 0.5 0.1
2 0.5 0.1
2.5 0.5 0.1
3 0.5 0.1
3.5 0.5 0.1
4 0.5 0.1
4.5 0.5 0.1
5 0.5 0.1
0 0.55 0.1
0.5 0.55 0.1
1 0.55 0.1
1.5 0.55 0.1
2 0.55 0.1
2.5 0.55 0.1
3 0.55 0.1
3.5 0.55 0.1
4 0.55 0.1
4.5 0.55 0.1
5 0.55 0.1
0 0.6 0.1
0.5 0.6 0.1
1 0.6 0.1
1.5 0.6 0.1
2 0.6 0.1
2.5 0.6 0.1
3 0.6 0.1
3.5 0.6 0.1
4 0.6 0.1
4.5 0.6 0.1
5 0.6 0.1
0 0.65 0.1
0.5 0.65 0.1
1 0.65 0.1
1.5 0.65 0.1
2 0.65 0.1
2.5 0.65 0.1
3 0.65 0.1
3.5 0.65 0.1
4 0.65 0.1
4.5 0.65 0.1
5 0.65 0.1
0 0.7 0.1
0.5 0.7 0.1
1 0.7 0.1
1.5 0.7 0.1
2 0.7 0.1
2.5 0.7 0.1
3 0.7 0.1
3.5 0.7 0.1
4 0.7 0.1
4.5 0.7 0.1
5 0.7 0.1
0 0.75 0.1
0.5 0.75 0.1
1 0.75 0.1
1.5 0.75 0.1
2 0.75 0.1
2.5 0.75 0.1
3 0.75 0.1
3.5 0.75 0.1
4 0.75 0.1
4.5 0.75 0.1
5 0.75 0.1
0 0.8 0.1
0.5 0.8 0.1
1 0.8 0.1
1.5 0.8 0.1
2 0.8 0.1
2.5 0.8 0.1
3 0.8 0.1
3.5 0.8 0.1
4 0.8 0.1
4.5 0.8 0.1
5 0.8 0.1
0 0.85 0.1
0.5 0.85 0.1
1 0.85 0.1
1.5 0.85 0.1
2 0.85 0.1
2.5 0.85 0.1
3 0.85 0.1
3.5 0.85 0.1
4 0.85 0.1
4.5 0.85 0.1
5 0.85 0.1
0 0.9 0.1
0.5 0.9 0.1
1 0.9 0.1
1.5 0.9 0.1
2 0.9 0.1
2.5 0.9 0.1
3 0.9 0.1
3.5 0.9 0.1
4 0.9 0.1
4.5 0.9 0.1
5 0.9 0.1
0 0.95 0.1
0.5 0.95 0.1
1 0.95 0.1
1.5 0.95 0.1
2 0.95 0.1
2.5 0.95 0.1
3 0.95 0.1
3.5 0.95 0.1
4 0.95 0.1
4.5 0.95 0.1
5 0.95 0.1
0 1 0.1
0.5 1 0.1
1 1 0.1
1.5 1 0.1
2 1 0.1
2.5 1 0.1
3 1 0.1
3.5 1 0.1
4 1 0.1
4.5 1 0.1
5 1 0.1
0 0 0.2
0.5 0 0.2
1 0 0.2
1.5 0 0.2
2 0 0.2
2.5 0 0.2
3 0 0.2
3.5 0 0.2
4 0 0.2
4.5 0 0.2
5 0 0.2
0 0.05 0.2
0.5 0.05 0.2
1 0.05 0.2
1.5 0.05 0.2
2 0.05 0.2
2.5 0.05 0.2
3 0.05 0.2
3.5 0.05 0.2
4 0.05 0.2
4.5 0.05 0.2
5 0.05 0.2
0 0.1 0.2
0.5 0.1 0.2
1 0.1 0.2
1.5 0.1 0.2
2 0.1 0.2
2.5 0.1 0.2
3 0.1 0.2
3.5 0.1 0.2
4 0.1 0.2
4.5 0.1 0.2
5 0.1 0.2
0 0.15 0.2
0.5 0.15 0.2
1 0.15 0.2
1.5 0.15 0.2
2 0.15 0.2
2.5 0.15 0.2
3 0.15 0.2
3.5 0.15 0.2
4 0.15 0.2
4.5 0.15 0.2
5 0.15 0.2
0 0.2 0.2
0.5 0.2 0.2
1 0.2 0.2
1.5 0.2 0.2
2 0.2 0.2
2.5 0.2 0.2
3 0.2 0.2
3.5 0.2 0.2
4 0.2 0.2
4.5 0.2 0.2
5 0.2 0.2
0 0.25 0.2
0.5 0.25 0.2
1 0.25 0.2
1.5 0.25 0.2
2 0.25 0.2
2.5 0.25 0.2
3 0.25 0.2
3.5 0.25 0.2
4 0.25 0.2
4.5 0.25 0.2
5 0.25 0.2
0 0.3 0.2
0.5 0.3 0.2
1 0.3 0.2
1.5 0.3 0.2
2 0.3 0.2
2.5 0.3 0.2
3 0.3 0.2
3.5 0.3 0.2
4 0.3 0.2
4.5 0.3 0.2
5 0.3 0.2
0 0.35 0.2
0.5 0.35 0.2
1 0.35 0.2
1.5 0.35 0.2
2 0.35 0.2
2.5 0.35 0.2
3 0.35 0.2
3.5 0.35 0.2
4 0.35 0.2
4.5 0.35 0.2
5 0.35 0.2
0 0.4 0.2
0.5 0.4 0.2
1 0.4 0.2
1.5 0.4 0.2
2 0.4 0.2
2.5 0.4 0.2
3 0.4 0.2
3.5 0.4 0.2
4 0.4 0.2
4.5 0.4 0.2
5 0.4 0.2
0 0.45 0.2
0.5 0.45 0.2
1 0.45 0.2
1.5 0.45 0.2
2 0.45 0.2
2.5 0.45 0.2
3 0.45 0.2
3.5 0.45 0.2
4 0.45 0.2
4.5 0.45 0.2
5 0.45 0.2
0 0.5 0.2
0.5 0.5 0.2
1 0.5 0.2
1.5 0.5 0.2
2 0.5 0.2
2.5 0.5 0.2
3 0.5 0.2
3.5 0.5 0.2
4 0.5 0.2
4.5 0.5 0.2
5 0.5 0.2
0 0.55 0.2
0.5 0.55 0.2
1 0.55 0.2
1.5 0.55 0.2
2 0.55 0.2
2.5 0.55 0.2
3 0.55 0.2
3.5 0.55 0.2
4 0.55 0.2
4.5 0.55 0.2
5 0.55 0.2
0 0.6 0.2
0.5 0.6 0.2
1 0.6 0.2
1.5 0.6 0.2
2 0.6 0.2
2.5 0.6 0.2
3 0.6 0.2
3.5 0.6 0.2
4 0.6 0.2
4.5 0.6 0.2
5 0.6 0.2
0 0.65 0.2
0.5 0.65 0.2
1 0.65 0.2
1.5 0.65 0.2
2 0.65 0.2
2.5 0.65 0.2
3 0.65 0.2
3.5 0.65 0.2
4 0.65 0.2
4.5 0.65 0.2
5 0.65 0.2
0 0.7 0.2
0.5 0.7 0.2
1 0.7 0.2
1.5 0.7 0.2
2 0.7 0.2
2.5 0.7 0.2
3 0.7 0.2
3.5 0.7 0.2
4 0.7 0.2
4.5 0.7 0.2
5 0.7 0.2
0 0.75 0.2
0.5 0.75 0.2
1 0.75 0.2
1.5 0.75 0.2
2 0.75 0.2
2.5 0.75 0.2
3 0.75 0.2
3.5 0.75 0.2
4 0.75 0.2
4.5 0.75 0.2
5 0.75 0.2
0 0.8 0.2
0.5 0.8 0.2
1 0.8 0.2
1.5 0.8 0.2
2 0.8 0.2
2.5 0.8 0.2
3 0.8 0.2
3.5 0.8 0.2
4 0.8 0.2
4.5 0.8 0.2
5 0.8 0.2
0 0.85 0.2
0.5 0.85 0.2
1 0.85 0.2
1.5 0.85 0.2
2 0.85 0.2
2.5 0.85 0.2
3 0.85 0.2
3.5 0.85 0.2
4 0.85 0.2
4.5 0.85 0.2
5 0.85 0.2
0 0.9 0.2
0.5 0.9 0.2
1 0.9 0.2
1.5 0.9 0.2
2 0.9 0.2
2.5 0.9 0.2
3 0.9 0.2
3.5 0.9 0.2
4 0.9 0.2
4.5 0.9 0.2
5 0.9 0.2
0 0.95 0.2
0.5 0.95 0.2
1 0.95 0.2
1.5 0.95 0.2
2 0.95 0.2
2.5 0.95 0.2
3 0.95 0.2
3.5 0.95 0.2
4 0.95 0.2
4.5 0.95 0.2
5 0.95 0.2
0 1 0.2
0.5 1 0.2
1 1 0.2
1.5 1 0.2
2 1 0.2
2.5 1 0.2
3 1 0.2
3.5 1 0.2
4 1 0.2
4.5 1 0.2
5 1 0.2
0 0 0.3
0.5 0 0.3
1 0 0.3
1.5 0 0.3
2 0 0.3
2.5 0 0.3
3 0 0.3
3.5 0 0.3
4 0 0.3
4.5 0 0.3
5 0 0.3
0 0.05 0.3
0.5 0.05 0.3
1 0.05 0.3
1.5 0.05 0.3
2 0.05 0.3
2.5 0.05 0.3
3 0.05 0.3
3.5 0.05 0.3
4 0.05 0.3
4.5 0.05 0.3
5 0.05 0.3
0 0.1 0.3
0.5 0.1 0.3
1 0.1 0.3
1.5 0.1 0.3
2 0.1 0.3
2.5 0.1 0.3
3 0.1 0.3
3.5 0.1 0.3
4 0.1 0.3
4.5 0.1 0.3
5 0.1 0.3
0 0.15 0.3
0.5 0.15 0.3
1 0.15 0.3
1.5 0.15 0.3
2 0.15 0.3
2.5 0.15 0.3
3 0.15 0.3
3.5 0.15 0.3
4 0.15 0.3
4.5 0.15 0.3
5 0.15 0.3
0 0.2 0.3
0.5 0.2 0.3
1 0.2 0.3
1.5 0.2 0.3
2 0.2 0.3
2.5 0.2 0.3
3 0.2 0.3
3.5 0.2 0.3
4 0.2 0.3
4.5 0.2 0.3
5 0.2 0.3
0 0.25 0.3
0.5 0.25 0.3
1 0.25 0.3
1.5 0.25 0.3
2 0.25 0.3
2.5 0.25 0.3
3 0.25 0.3
3.5 0.25 0.3
4 0.25 0.3
4.5 0.25 0.3
5 0.25 0.3
0 0.3 0.3
0.5 0.3 0.3
1 0.3 0.3
1.5 0.3 0.3
2 0.3 0.3
2.5 0.3 0.3
3 0.3 0.3
3.5 0.3 0.3
4 0.3 0.3
4.5 0.3 0.3
5 0.3 0.3
0 0.35 0.3
0.5 0.35 0.3
1 0.35 0.3
1.5 0.35 0.3
2 0.35 0.3
2.5 0.35 0.3
3 0.35 0.3
3.5 0.35 0.3
4 0.35 0.3
4.5 0.35 0.3
5 0.35 0.3
0 0.4 0.3
0.5 0.4 0.3
1 0.4 0.3
1.5 0.4 0.3
2 0.4 0.3
2.5 0.4 0.3
3 0.4 0.3
3.5 0.4 0.3
4 0.4 0.3
4.5 0.4 0.3
5 0.4 0.3
0 0.45 0.3
0.5 0.45 0.3
1 0.45 0.3
1.5 0.45 0.3
2 0.45 0.3
2.5 0.45 0.3
3 0.45 0.3
3.5 0.45 0.3
4 0.45 0.3
4.5 0.45 0.3
5 0.45 0.3
0 0.5 0.3
0.5 0.5 0.3
1 0.5 0.3
1.5 0.5 0.3
2 0.5 0.3
2.5 0.5 0.3
3 0.5 0.3
3.5 0.5 0.3
4 0.5 0.3
4.5 0.5 0.3
5 0.5 0.3
0 0.55 0.3
0.5 0.55 0.3
1 0.55 0.3
1.5 0.55 0.3
2 0.55 0.3
2.5 0.55 0.3
3 0.55 0.3
3.5 0.55 0.3
4 0.55 0.3
4.5 0.55 0.3
5 0.55 0.3
0 0.6 0.3
0.5 0.6 0.3
1 0.6 0.3
1.5 0.6 0.3
2 0.6 0.3
2.5 0.6 0.3
3 0.6 0.3
3.5 0.6 0.3
4 0.6 0.3
4.5 0.6 0.3
5 0.6 0.3
0 0.65 0.3
0.5 0.65 0.3
1 0.65 0.3
1.5 0.65 0.3
2 0.65 0.3
2.5 0.65 0.3
3 0.65 0.3
3.5 0.65 0.3
4 0.65 0.3
4.5 0.65 0.3
5 0.65 0.3
0 0.7 0.3
0.5 0.7 0.3
1 0.7 0.3
1.5 0.7 0.3
2 0.7 0.3
2.5 0.7 0.3
3 0.7 0.3
3.5 0.7 0.3
4 0.7 0.3
4.5 0.7 0.3
5 0.7 0.3
0 0.75 0.3
0.5 0.75 0.3
1 0.75 0.3
1.5 0.75 0.3
2 0.75 0.3
2.5 0.75 0.3
3 0.75 0.3
3.5 0.75 0.3
4 0.75 0.3
4.5 0.75 0.3
5 0.75 0.3
0 0.8 0.3
0.5 0.8 0.3
1 0.8 0.3
1.5 0.8 0.3
2 0.8 0.3
2.5 0.8 0.3
3 0.8 0.3
3.5 0.8 0.3
4 0.8 0.3
4.5 0.8 0.3
5 0.8 0.3
0 0.85 0.3
0.5 0.85 0.3
1 0.85 0.3
1.5 0.85 0.3
2 0.85 0.3
2.5 0.85 0.3
3 0.85 0.3
3.5 0.85 0.3
4 0.85 0.3
4.5 0.85 0.3
5 0.85 0.3
0 0.9 0.3
0.5 0.9 0.3
1 0.9 0.3
1.5 0.9 0.3
2 0.9 0.3
2.5 0.9 0.3
3 0.9 0.3
3.5 0.9 0.3
4 0.9 0.3
4.5 0.9 0.3
5 0.9 0.3
0 0.95 0.3
0.5 0.95 0.3
1 0.95 0.3
1.5 0.95 0.3
2 0.95 0.3
2.5 0.95 0.3
3 0.95 0.3
3.5 0.95 0.3
4 0.95 0.3
4.5 0.95 0.3
5 0.95 0.3
0 1 0.3
0.5 1 0.3
1 1 0.3
1.5 1 0.3
2 1 0.3
2.5 1 0.3
3 1 0.3
3.5 1 0.3
4 1 0.3
4.5 1 0.3
5 1 0.3
0 0 0.4
[...]
CELL_DATA 2000
SCALARS pressure float 1
LOOKUP_TABLE default
0
0
0.889956
0.967225
0.791609
0.635907
0.485348
0.336137
0.186543
0.0239324
0
0
0.887285
0.959986
0.790977
0.635776
0.485318
0.336131
0.186549
0.0261619
0
0
0.85294
0.955714
0.790025
0.635577
0.485271
0.336125
0.18662
0.028343
0
0
0.839609
0.946115
0.788845
0.635326
0.48521
0.336118
0.186728
0.0301871
1.4029
1.53478
0.844323
0.937058
0.787463
0.635031
0.485139
0.336109
0.186849
0.0316829
1.40019
1.53162
0.865328
0.929304
0.785992
0.634705
0.485058
0.336098
0.186968
0.03287
1.39357
1.52529
0.891478
0.923438
0.784528
0.634358
0.484969
0.336084
0.187073
0.0337816
1.38378
1.51647
0.922257
0.919401
0.783138
0.633999
0.484875
0.336067
0.187155
0.0344434
1.37343
1.50641
0.95218
0.916899
0.781869
0.633638
0.484777
0.336047
0.187211
0.034874
1.36436
1.49628
0.979434
0.915532
0.780735
0.633282
0.484677
0.336023
0.187236
0.0350856
1.35721
1.48671
1.00361
0.914976
0.779731
0.632936
0.484578
0.335996
0.187229
0.0350843
1.35236
1.47807
1.02459
0.914968
0.778849
0.632606
0.48448
0.335966
0.18719
0.0348701
1.35024
1.47054
1.04245
0.915287
0.778075
0.632295
0.484385
0.335934
0.187121
0.034437
1.35091
1.46419
1.05731
0.915754
0.777393
0.632006
0.484296
0.335901
0.187025
0.0337728
1.35422
1.45902
1.06936
0.916225
0.776789
0.631741
0.484213
0.335868
0.186908
0.032859
1.36001
1.455
1.07876
0.916586
0.776248
0.631503
0.484138
0.335838
0.186779
0.0316699
1.36778
1.45208
1.08571
0.91675
0.775757
0.631291
0.484072
0.33581
0.186648
0.0301724
1.37583
1.45014
1.09038
0.916659
0.77531
0.63111
0.484017
0.335787
0.186532
0.0283268
1.38146
1.44926
1.09296
0.916322
0.774919
0.630964
0.483974
0.33577
0.186456
0.0261445
1.3838
1.44931
1.09342
0.915789
0.774615
0.630863
0.483946
0.335761
0.186446
0.0239142
0
0
0.899476
0.964625
0.791561
0.635869
0.485338
0.336148
0.186722
0.0280676
0
0
0.894936
0.958096
0.790651
0.635699
0.4853
0.336139
0.186705
0.0314351
0
0
0.862098
0.953962
0.789687
0.635492
0.485252
0.336133
0.186819
0.0338258
0
0
0.868527
0.947
0.788465
0.635241
0.485192
0.336127
0.18695
0.0356983
1.38827
1.53504
0.818094
0.937035
0.78709
0.634954
0.485123
0.336119
0.187084
0.0372154
1.38496
1.55102
0.830821
0.927014
0.785635
0.634639
0.485044
0.33611
0.18721
0.0384182
1.37916
1.54234
0.867939
0.920769
0.784221
0.634305
0.484959
0.336097
0.187319
0.0393409
1.37157
1.52778
0.90519
0.917405
0.78291
0.633961
0.484868
0.336082
0.187405
0.0400102
1.36301
1.51356
0.940292
0.915529
0.781723
0.633615
0.484773
0.336063
0.187462
0.0404454
1.35469
1.50031
0.971622
0.914645
0.780661
0.633274
0.484677
0.33604
0.187488
0.0406593
1.34815
1.48836
0.998614
0.914462
0.77972
0.632943
0.484581
0.336013
0.187481
0.040658
1.3437
1.47802
1.02154
0.914736
0.778892
0.632626
0.484487
0.335984
0.187442
0.0404417
1.34141
1.46945
1.04076
0.915266
0.778163
0.632328
0.484395
0.335952
0.187371
0.0400041
1.34135
1.46262
1.05656
0.915891
0.77752
0.63205
0.484309
0.33592
0.187273
0.0393325
1.34378
1.45735
1.06923
0.91648
0.776948
0.631795
0.484229
0.335887
0.187152
0.0384077
1.34865
1.45327
1.07899
0.916929
0.776433
0.631565
0.484156
0.335856
0.187015
0.0372029
1.35458
1.45006
1.0861
0.91716
0.775963
0.631359
0.484091
0.335827
0.186872
0.0356841
1.36055
1.44766
1.09074
0.917119
0.775534
0.631182
0.484037
0.335804
0.186733
0.0338101
1.36567
1.44656
1.09317
0.916747
0.775128
0.631031
0.483992
0.335786
0.186613
0.0314183
1.36939
1.44776
1.09342
0.916012
0.774742
0.630906
0.483958
0.335777
0.186626
0.0280498
0
0
0.910384
0.965038
0.79165
0.635839
0.485328
0.336169
0.187014
0.0312655
0
0
0.905157
0.959354
0.79071
0.63566
0.485289
0.336161
0.187009
0.0348367
0
0
0.877642
0.956234
0.789771
0.63545
0.485239
0.336156
0.18714
0.0373445
0
0
0.88591
0.950779
0.788613
0.635203
0.485181
0.336151
0.187286
0.0392869
1.37315
1.52777
0.810895
0.941168
0.787283
0.634922
0.485112
0.336145
0.187432
0.0408477
1.36956
1.56334
0.795471
0.929274
0.785807
0.634611
0.485035
0.336137
0.187566
0.0420793
1.36649
1.56808
0.829572
0.920077
0.784293
0.634282
0.484952
0.336126
0.187681
0.043021
1.36665
1.5522
0.8795
0.915116
0.78288
0.633944
0.484864
0.336111
0.187771
0.0437025
1.36862
1.52987
0.923273
0.913233
0.781644
0.633604
0.484772
0.336093
0.187831
0.0441451
1.37057
1.50866
0.95998
0.912818
0.780582
0.63327
0.484678
0.336071
0.187858
0.0443624
1.37134
1.49076
0.991002
0.913112
0.779665
0.632948
0.484585
0.336046
0.187851
0.0443612
1.3703
1.47663
1.01695
0.913792
0.778869
0.63264
0.484493
0.336017
0.18781
0.0441415
1.36786
1.46609
1.03838
0.914651
0.778174
0.63235
0.484405
0.335985
0.187738
0.0436966
1.364
1.4588
1.05581
0.915541
0.777563
0.632081
0.484321
0.335953
0.187636
0.0430129
1.35866
1.45426
1.06961
0.916342
0.77702
0.631834
0.484242
0.33592
0.187509
0.0420691
1.35284
1.45162
1.08
0.916962
0.776532
0.63161
0.484171
0.335888
0.187365
0.0408356
1.34816
1.44963
1.08717
0.917326
0.776089
0.63141
0.484108
0.335859
0.18721
0.0392731
1.34684
1.44769
1.09159
0.91736
0.775676
0.631236
0.484054
0.335834
0.187056
0.0373294
1.3498
1.44662
1.09382
0.916999
0.775269
0.631082
0.484008
0.335815
0.186919
0.0348203
1.35418
1.44806
1.09399
0.916229
0.774864
0.630951
0.483973
0.335805
0.18692
0.0312482
0
0
0.915969
0.966368
0.791798
0.635826
0.485323
0.336191
0.18727
0.0332863
0
0
0.910975
0.96098
0.790865
0.635647
0.485283
0.336184
0.187269
0.0369002
0
0
0.883585
0.958447
0.789955
0.635437
0.485234
0.336179
0.187406
0.0394498
0
0
0.888332
0.953684
0.78885
0.635195
0.485175
0.336175
0.18756
0.0414259
1.36545
1.53508
0.809277
0.944376
0.787572
0.634919
0.485108
0.336171
0.187712
0.0430126
1.36265
1.57509
0.781291
0.932082
0.786122
0.634614
0.485033
0.336163
0.187852
0.0442634
1.36292
1.58584
0.799728
0.921335
0.784559
0.634288
0.484951
0.336153
0.187971
0.045219
1.3709
1.57189
0.848516
0.914522
0.783029
0.633948
0.484863
0.33614
0.188063
0.0459101
1.38556
1.54481
0.902528
0.911667
0.781672
0.633607
0.484773
0.336122
0.188125
0.0463586
1.40187
1.51587
0.947531
0.911095
0.780531
0.633272
0.484681
0.336101
0.188153
0.0465787
1.41412
1.49
0.983414
0.911535
0.779575
0.63295
0.484589
0.336076
0.188146
0.0465775
1.41909
1.46974
1.01272
0.912446
0.778766
0.632644
0.484499
0.336047
0.188105
0.0463551
1.4166
1.45643
1.03675
0.913565
0.778075
0.632357
0.484411
0.336016
0.188031
0.0459043
1.40649
1.44971
1.05592
0.914739
0.777483
0.632092
0.484328
0.335983
0.187926
0.0452111
1.3892
1.44763
1.07047
0.915837
0.776976
0.63185
0.484251
0.33595
0.187796
0.0442534
1.36851
1.44765
1.08093
0.916716
0.776532
0.631632
0.484181
0.335917
0.187646
0.0430008
1.35111
1.44801
1.08802
0.917257
0.776124
0.631437
0.484119
0.335888
0.187485
0.0414125
1.34229
1.44773
1.09232
0.917389
0.77573
0.631265
0.484065
0.335862
0.187324
0.0394349
1.3423
1.44731
1.09444
0.917071
0.775332
0.631112
0.48402
0.335842
0.18718
0.0368841
1.34609
1.44902
1.09459
0.916315
0.774928
0.630981
0.483984
0.335831
0.187177
0.0332692
0
0
0.917465
0.967228
0.791901
0.635823
0.48532
0.336205
0.187414
0.0342549
0
0
0.91218
0.961947
0.790975
0.635644
0.485281
0.336198
0.187414
0.0378793
0
0
0.883874
0.959647
0.790082
0.635435
0.485231
0.336194
0.187554
0.0404428
0
0
0.887195
0.955154
0.789
0.635195
0.485174
0.33619
0.187711
0.0424323
1.36277
1.54162
0.806759
0.945992
0.787748
0.634922
0.485107
0.336186
0.187865
0.0440301
1.36062
1.58291
0.776613
0.933627
0.786318
0.63462
0.485032
0.336179
0.188007
0.0452898
1.36353
1.59488
0.790375
0.922596
0.78476
0.634297
0.484951
0.33617
0.188129
0.0462522
1.37709
1.58121
0.832847
0.915153
0.783201
0.63396
0.484864
0.336156
0.188222
0.0469481
1.39946
1.55236
0.885893
0.911377
0.781769
0.633617
0.484775
0.336139
0.188285
0.0473997
1.42443
1.51948
0.936248
0.910138
0.780532
0.633277
0.484683
0.336118
0.188314
0.0476214
1.44468
1.48907
0.978301
0.910354
0.779499
0.632949
0.484591
0.336093
0.188307
0.0476202
1.45403
1.46479
1.01144
0.911334
0.778648
0.632639
0.484501
0.336065
0.188265
0.0473962
1.4514
1.44953
1.03698
0.912687
0.777958
0.632353
0.484414
0.336033
0.18819
0.0469424
1.43664
1.44319
1.05641
0.914139
0.777398
0.632092
0.484332
0.336001
0.188084
0.0462444
1.41111
1.44267
1.07092
0.91547
0.776928
0.631855
0.484256
0.335967
0.187952
0.04528
1.38167
1.44474
1.08139
0.916515
0.776513
0.63164
0.484186
0.335935
0.1878
0.0440184
1.35659
1.44685
1.08846
0.917165
0.776124
0.631448
0.484124
0.335905
0.187636
0.0424189
1.34234
1.44773
1.09273
0.917359
0.775744
0.631278
0.484071
0.335879
0.187472
0.0404281
1.33988
1.44784
1.0948
0.917074
0.775353
0.631126
0.484026
0.335858
0.187326
0.0378633
1.34314
1.44975
1.09495
0.916332
0.774952
0.630995
0.48399
0.335847
0.187322
0.034238
0
0
0.917465
0.967228
0.791901
0.635823
0.48532
0.336205
0.187414
0.0342549
0
0
0.91218
0.961947
0.790975
0.635644
0.485281
0.336198
0.187414
0.0378793
0
0
0.883874
0.959647
0.790082
0.635435
0.485231
0.336194
0.187554
0.0404428
0
0
0.887195
0.955154
0.789
0.635195
0.485174
0.33619
0.187711
0.0424323
1.36277
1.54162
0.806759
0.945992
0.787748
0.634922
0.485107
0.336186
0.187865
0.0440301
1.36062
1.58291
0.776613
0.933627
0.786318
0.63462
0.485032
0.336179
0.188007
0.0452898
1.36353
1.59488
0.790375
0.922596
0.78476
0.634297
0.484951
0.33617
0.188129
0.0462522
1.37709
1.58121
0.832847
0.915153
0.783201
0.63396
0.484864
0.336156
0.188222
0.0469481
1.39946
1.55236
0.885893
0.911377
0.781769
0.633617
0.484775
0.336139
0.188285
0.0473997
1.42443
1.51948
0.936248
0.910138
0.780532
0.633277
0.484683
0.336118
0.188314
0.0476214
1.44468
1.48907
0.978301
0.910354
0.779499
0.632949
0.484591
0.336093
0.188307
0.0476202
1.45403
1.46479
1.01144
0.911334
0.778648
0.632639
0.484501
0.336065
0.188265
0.0473962
1.4514
1.44953
1.03698
0.912687
0.777958
0.632353
0.484414
0.336033
0.18819
0.0469424
1.43664
1.44319
1.05641
0.914139
0.777398
0.632092
0.484332
0.336001
0.188084
0.0462444
1.41111
1.44267
1.07092
0.91547
0.776928
0.631855
0.484256
0.335967
0.187952
0.04528
1.38167
1.44474
1.08139
0.916515
0.776513
0.63164
0.484186
0.335935
0.1878
0.0440184
1.35659
1.44685
1.08846
0.917165
0.776124
0.631448
0.484124
0.335905
0.187636
0.0424189
1.34234
1.44773
1.09273
0.917359
0.775744
0.631278
0.484071
0.335879
0.187472
0.0404281
1.33988
1.44784
1.0948
0.917074
0.775353
0.631126
0.484026
0.335858
0.187326
0.0378633
1.34314
1.44975
1.09495
0.916332
0.774952
0.630995
0.48399
0.335847
0.187322
0.034238
0
0
0.915969
0.966368
0.791798
0.635826
0.485323
0.336191
0.18727
0.0332863
0
0
0.910975
0.96098
0.790865
0.635647
0.485283
0.336184
0.187269
0.0369002
0
0
0.883585
0.958447
0.789955
0.635437
0.485234
0.336179
0.187406
0.0394498
0
0
0.888332
0.953684
0.78885
0.635195
0.485175
0.336175
0.18756
0.0414259
1.36545
1.53508
0.809277
0.944376
0.787572
0.634919
0.485108
0.336171
0.187712
0.0430126
1.36265
1.57509
0.781291
0.932082
0.786122
0.634614
0.485033
0.336163
0.187852
0.0442634
1.36292
1.58584
0.799728
0.921335
0.784559
0.634288
0.484951
0.336153
0.187971
0.045219
1.3709
1.57189
0.848516
0.914522
0.783029
0.633948
0.484863
0.33614
0.188063
0.0459101
1.38556
1.54481
0.902528
0.911667
0.781672
0.633607
0.484773
0.336122
0.188125
0.0463586
1.40187
1.51587
0.947531
0.911095
0.780531
0.633272
0.484681
0.336101
0.188153
0.0465787
1.41412
1.49
0.983414
0.911535
0.779575
0.63295
0.484589
0.336076
0.188146
0.0465775
1.41909
1.46974
1.01272
0.912446
0.778766
0.632644
0.484499
0.336047
0.188105
0.0463551
1.4166
1.45643
1.03675
0.913565
0.778075
0.632357
0.484411
0.336016
0.188031
0.0459043
1.40649
1.44971
1.05592
0.914739
0.777483
0.632092
0.484328
0.335983
0.187926
0.0452111
1.3892
1.44763
1.07047
0.915837
0.776976
0.63185
0.484251
0.33595
0.187796
0.0442534
1.36851
1.44765
1.08093
0.916716
0.776532
0.631632
0.484181
0.335917
0.187646
0.0430008
1.35111
1.44801
1.08802
0.917257
0.776124
0.631437
0.484119
0.335888
0.187485
0.0414125
1.34229
1.44773
1.09232
0.917389
0.77573
0.631265
0.484065
0.335862
0.187324
0.0394349
1.3423
1.44731
1.09444
0.917071
0.775332
0.631112
0.48402
0.335842
0.18718
0.0368841
1.34609
1.44902
1.09459
0.916315
0.774928
0.630981
0.483984
0.335831
0.187177
0.0332692
0
0
0.910384
0.965038
0.79165
0.635839
0.485328
0.336169
0.187014
0.0312655
0
0
0.905157
0.959354
0.79071
0.63566
0.485289
0.336161
0.187009
0.0348367
0
0
0.877642
0.956234
0.789771
0.63545
0.485239
0.336156
0.18714
0.0373445
0
0
0.88591
0.950779
0.788613
0.635203
0.485181
0.336151
0.187286
0.0392869
1.37315
1.52777
0.810895
0.941168
0.787283
0.634922
0.485112
0.336145
0.187432
0.0408477
1.36956
1.56334
0.795471
0.929274
0.785807
0.634611
0.485035
0.336137
0.187566
0.0420793
1.36649
1.56808
0.829572
0.920077
0.784293
0.634282
0.484952
0.336126
0.187681
0.043021
1.36665
1.5522
0.8795
0.915116
0.78288
0.633944
0.484864
0.336111
0.187771
0.0437025
1.36862
1.52987
0.923273
0.913233
0.781644
0.633604
0.484772
0.336093
0.187831
0.0441451
1.37057
1.50866
0.95998
0.912818
0.780582
0.63327
0.484678
0.336071
0.187858
0.0443624
1.37134
1.49076
0.991002
0.913112
0.779665
0.632948
0.484585
0.336046
0.187851
0.0443612
1.3703
1.47663
1.01695
0.913792
0.778869
0.63264
0.484493
0.336017
0.18781
0.0441415
1.36786
1.46609
1.03838
0.914651
0.778174
0.63235
0.484405
0.335985
0.187738
0.0436966
1.364
1.4588
1.05581
0.915541
0.777563
0.632081
0.484321
0.335953
0.187636
0.0430129
1.35866
1.45426
1.06961
0.916342
0.77702
0.631834
0.484242
0.33592
0.187509
0.0420691
1.35284
1.45162
1.08
0.916962
0.776532
0.63161
0.484171
0.335888
0.187365
0.0408356
1.34816
1.44963
1.08717
0.917326
0.776089
0.63141
0.484108
0.335859
0.18721
0.0392731
1.34684
1.44769
1.09159
0.91736
0.775676
0.631236
0.484054
0.335834
0.187056
0.0373294
1.3498
1.44662
1.09382
0.916999
0.775269
0.631082
0.484008
0.335815
0.186919
0.0348203
1.35418
1.44806
1.09399
0.916229
0.774864
0.630951
0.483973
0.335805
0.18692
0.0312482
0
0
0.899476
0.964625
0.791561
0.635869
0.485338
0.336148
0.186722
0.0280676
0
0
0.894936
0.958096
0.790651
0.635699
0.4853
0.336139
0.186705
0.0314351
0
0
0.862098
0.953962
0.789687
0.635492
0.485252
0.336133
0.186819
0.0338258
0
0
0.868527
0.947
0.788465
0.635241
0.485192
0.336127
0.18695
0.0356983
1.38827
1.53504
0.818094
0.937035
0.78709
0.634954
0.485123
0.336119
0.187084
0.0372154
1.38496
1.55102
0.830821
0.927014
0.785635
0.634639
0.485044
0.33611
0.18721
0.0384182
1.37916
1.54234
0.867939
0.920769
0.784221
0.634305
0.484959
0.336097
0.187319
0.0393409
1.37157
1.52778
0.90519
0.917405
0.78291
0.633961
0.484868
0.336082
0.187405
0.0400102
1.36301
1.51356
0.940292
0.915529
0.781723
0.633615
0.484773
0.336063
0.187462
0.0404454
1.35469
1.50031
0.971622
0.914645
0.780661
0.633274
0.484677
0.33604
0.187488
0.0406593
1.34815
1.48836
0.998614
0.914462
0.77972
0.632943
0.484581
0.336013
0.187481
0.040658
1.3437
1.47802
1.02154
0.914736
0.778892
0.632626
0.484487
0.335984
0.187442
0.0404417
1.34141
1.46945
1.04076
0.915266
0.778163
0.632328
0.484395
0.335952
0.187371
0.0400041
1.34135
1.46262
1.05656
0.915891
0.77752
0.63205
0.484309
0.33592
0.187273
0.0393325
1.34378
1.45735
1.06923
0.91648
0.776948
0.631795
0.484229
0.335887
0.187152
0.0384077
1.34865
1.45327
1.07899
0.916929
0.776433
0.631565
0.484156
0.335856
0.187015
0.0372029
1.35458
1.45006
1.0861
0.91716
0.775963
0.631359
0.484091
0.335827
0.186872
0.0356841
1.36055
1.44766
1.09074
0.917119
0.775534
0.631182
0.484037
0.335804
0.186733
0.0338101
1.36567
1.44656
1.09317
0.916747
0.775128
0.631031
0.483992
0.335786
0.186613
0.0314183
1.36939
1.44776
1.09342
0.916012
0.774742
0.630906
0.483958
0.335777
0.186626
0.0280498
0
0
0.889956
0.967225
0.791609
0.635907
0.485348
0.336137
0.186543
0.0239324
0
0
0.887285
0.959986
0.790977
0.635776
0.485318
0.336131
0.186549
0.0261619
0
0
0.85294
0.955714
0.790025
0.635577
0.485271
0.336125
0.18662
0.028343
0
0
0.839609
0.946115
0.788845
0.635326
0.48521
0.336118
0.186728
0.0301871
1.4029
1.53478
0.844323
0.937058
0.787463
0.635031
0.485139
0.336109
0.186849
0.0316829
1.40019
1.53162
0.865328
0.929304
0.785992
0.634705
0.485058
0.336098
0.186968
0.03287
1.39357
1.52529
0.891478
0.923438
0.784528
0.634358
0.484969
0.336084
0.187073
0.0337816
1.38378
1.51647
0.922257
0.919401
0.783138
0.633999
0.484875
0.336067
0.187155
0.0344434
1.37343
1.50641
0.95218
0.916899
0.781869
0.633638
0.484777
0.336047
0.187211
0.034874
1.36436
1.49628
0.979434
0.915532
0.780735
0.633282
0.484677
0.336023
0.187236
0.0350856
1.35721
1.48671
1.00361
0.914976
0.779731
0.632936
0.484578
0.335996
0.187229
0.0350843
1.35236
1.47807
1.02459
0.914968
0.778849
0.632606
0.48448
0.335966
0.18719
0.0348701
1.35024
1.47054
1.04245
0.915287
0.778075
0.632295
0.484385
0.335934
0.187121
0.034437
1.35091
1.46419
1.05731
0.915754
0.777393
0.632006
0.484296
0.335901
0.187025
0.0337728
1.35422
1.45902
1.06936
0.916225
0.776789
0.631741
0.484213
0.335868
0.186908
0.032859
1.36001
1.455
1.07876
0.916586
0.776248
0.631503
0.484138
0.335838
0.186779
0.0316699
1.36778
1.45208
1.08571
0.91675
0.775757
0.631291
0.484072
0.33581
0.186648
0.0301724
1.37583
1.45014
1.09038
0.916659
0.77531
0.63111
0.484017
0.335787
0.186532
0.0283268
1.38146
1.44926
1.09296
0.916322
0.774919
0.630964
0.483974
0.33577
0.186456
0.0261445
1.3838
1.44931
1.09342
0.915789
0.774615
0.630863
0.483946
0.335761
0.186446
0.0239142

VECTORS velocity float
0 0 0
0 0 0
0.734527 -0.0308189 -0.00232522
0.659096 -0.00244504 0.00101987
0.684412 -0.000658754 0.000124607
0.691737 -0.00014935 2.65978e-05
0.693402 -3.33951e-05 5.90178e-06
0.693811 -9.11677e-06 -2.73013e-06
0.694241 -8.51112e-06 -4.78847e-05
0.717047 -0.00155739 -0.00138166
0 0 0
0 0 0
-0.108613 -0.0912915 -0.00185981
0.676552 -0.011772 0.000811626
0.75041 -0.00231358 0.000172705
0.761299 -0.000496574 3.74645e-05
0.763484 -0.000110277 8.1711e-06
0.764007 -2.9908e-05 -2.3436e-06
0.764769 -5.52114e-05 -5.04291e-05
0.773785 -0.00309646 -0.00171301
0 0 0
0 0 0
0.75767 -0.155014 -0.000510917
0.718465 -0.0221805 0.000682623
0.758411 -0.00419432 0.000150722
0.768271 -0.000889415 3.6596e-05
0.770431 -0.00019721 8.21805e-06
0.77095 -5.29263e-05 -2.52705e-06
0.771627 -0.000120285 -5.64812e-05
0.778604 -0.00283777 -0.00176587
0 0 0
0 0 0
-0.0944205 -0.221107 0.000101447
0.695226 -0.031307 7.38966e-05
0.759161 -0.00597139 0.000123798
0.769127 -0.00126735 3.38722e-05
0.771154 -0.000281204 7.69368e-06
0.771636 -7.43763e-05 -2.85272e-06
0.772185 -0.000159957 -6.11455e-05
0.77915 -0.00235782 -0.00178541
0.397637 -0.016646 -0.035888
0.785828 0.00805942 -0.0246392
0.760114 -0.252067 0.0114801
0.723288 -0.0405898 0.00112413
0.761253 -0.00761453 0.000150138
0.769472 -0.00161217 3.13129e-05
0.771261 -0.000357947 6.87049e-06
0.77169 -9.29603e-05 -3.22457e-06
0.77213 -0.000174868 -6.35465e-05
0.779293 -0.00190315 -0.00179509
0.478479 -0.0446311 -0.043961
0.935574 0.0163037 -0.0251495
0.896861 -0.242646 0.0158064
0.746292 -0.0464023 0.00185094
0.763471 -0.0089599 0.000161952
0.769833 -0.00191028 2.73376e-05
0.771338 -0.000424962 5.78848e-06
0.771702 -0.000108058 -3.63528e-06
0.772052 -0.000171047 -6.50206e-05
0.77939 -0.00149465 -0.00180131
0.525223 -0.0609517 -0.0499935
0.951324 0.0145419 -0.0213702
0.917311 -0.223762 0.0110139
0.759422 -0.0495231 0.00149337
0.765568 -0.00998965 0.000129831
0.770235 -0.00215374 2.13638e-05
0.771424 -0.000480405 4.49703e-06
0.771715 -0.000119324 -4.05929e-06
0.771992 -0.000153149 -6.59512e-05
0.779465 -0.00112483 -0.00180534
0.563816 -0.0655832 -0.0550161
0.948166 0.0105283 -0.01842
0.917179 -0.201969 0.00621777
0.769428 -0.0505975 0.000965959
0.767713 -0.0106981 9.03915e-05
0.770676 -0.00233654 1.49013e-05
0.77152 -0.000522817 3.08514e-06
0.771731 -0.000126609 -4.4811e-06
0.77195 -0.000124922 -6.6547e-05
0.77952 -0.000784522 -0.00180791
0.595164 -0.0605912 -0.0591819
0.943426 0.0069671 -0.0167659
0.914758 -0.179623 0.00332895
0.778178 -0.0500499 0.000566272
0.769899 -0.0110837 5.23524e-05
0.771142 -0.00245453 8.3545e-06
0.771622 -0.000551128 1.60772e-06
0.77175 -0.000129925 -4.88957e-06
0.771924 -8.9491e-05 -6.69227e-05
0.779557 -0.00046486 -0.00180943
0.619249 -0.0480125 -0.0625731
0.939088 0.00480344 -0.0159294
0.912269 -0.157984 0.00151322
0.785829 -0.0482354 0.000288556
0.772046 -0.0111553 1.92222e-05
0.77162 -0.00250568 2.00208e-06