# vtk DataFile Version 2.0
TestTestTest
ASCII

DATASET STRUCTURED_GRID
DIMENSIONS 11 21 11
POINTS 2541 float
0 0 0
0.5 0 0
1 0 0
1.5 0 0
2 0 0
2.5 0 0
3 0 0
3.5 0 0
4 0 0
4.5 0 0
5 0 0
0 0.05 0
0.5 0.05 0
1 0.05 0
1.5 0.05 0
2 0.05 0
2.5 0.05 0
3 0.05 0
3.5 0.05 0
4 0.05 0
4.5 0.05 0
5 0.05 0
0 0.1 0
0.5 0.1 0
1 0.1 0
1.5 0.1 0
2 0.1 0
2.5 0.1 0
3 0.1 0
3.5 0.1 0
4 0.1 0
4.5 0.1 0
5 0.1 0
0 0.15 0
0.5 0.15 0
1 0.15 0
1.5 0.15 0
2 0.15 0
2.5 0.15 0
3 0.15 0
3.5 0.15 0
4 0.15 0
4.5 0.15 0
5 0.15 0
0 0.2 0
0.5 0.2 0
1 0.2 0
1.5 0.2 0
2 0.2 0
2.5 0.2 0
3 0.2 0
3.5 0.2 0
4 0.2 0
4.5 0.2 0
5 0.2 0
0 0.25 0
0.5 0.25 0
1 0.25 0
1.5 0.25 0
2 0.25 0
2.5 0.25 0
3 0.25 0
3.5 0.25 0
4 0.25 0
4.5 0.25 0
5 0.25 0
0 0.3 0
0.5 0.3 0
1 0.3 0
1.5 0.3 0
2 0.3 0
2.5 0.3 0
3 0.3 0
3.5 0.3 0
4 0.3 0
4.5 0.3 0
5 0.3 0
0 0.35 0
0.5 0.35 0
1 0.35 0
1.5 0.35 0
2 0.35 0
2.5 0.35 0
3 0.35 0
3.5 0.35 0
4 0.35 0
4.5 0.35 0
5 0.35 0
0 0.4 0
0.5 0.4 0
1 0.4 0
1.5 0.4 0
2 0.4 0
2.5 0.4 0
3 0.4 0
3.5 0.4 0
4 0.4 0
4.5 0.4 0
5 0.4 0
0 0.45 0
0.5 0.45 0
1 0.45 0
1.5 0.45 0
2 0.45 0
2.5 0.45 0
3 0.45 0
3.5 0.45 0
4 0.45 0
4.5 0.45 0
5 0.45 0
0 0.5 0
0.5 0.5 0
1 0.5 0
1.5 0.5 0
2 0.5 0
2.5 0.5 0
3 0.5 0
3.5 0.5 0
4 0.5 0
4.5 0.5 0
5 0.5 0
0 0.55 0
0.5 0.55 0
1 0.55 0
1.5 0.55 0
2 0.55 0
2.5 0.55 0
3 0.55 0
3.5 0.55 0
4 0.55 0
4.5 0.55 0
5 0.55 0
0 0.6 0
0.5 0.6 0
1 0.6 0
1.5 0.6 0
2 0.6 0
2.5 0.6 0
3 0.6 0
3.5 0.6 0
4 0.6 0
4.5 0.6 0
5 0.6 0
0 0.65 0
0.5 0.65 0
1 0.65 0
1.5 0.65 0
2 0.65 0
2.5 0.65 0
3 0.65 0
3.5 0.65 0
4 0.65 0
4.5 0.65 0
5 0.65 0
0 0.7 0
0.5 0.7 0
1 0.7 0
1.5 0.7 0
2 0.7 0
2.5 0.7 0
3 0.7 0
3.5 0.7 0
4 0.7 0
4.5 0.7 0
5 0.7 0
0 0.75 0
0.5 0.75 0
1 0.75 0
1.5 0.75 0
2 0.75 0
2.5 0.75 0
3 0.75 0
3.5 0.75 0
4 0.75 0
4.5 0.75 0
5 0.75 0
0 0.8 0
0.5 0.8 0
1 0.8 0
1.5 0.8 0
2 0.8 0
2.5 0.8 0
3 0.8 0
3.5 0.8 0
4 0.8 0
4.5 0.8 0
5 0.8 0
0 0.85 0
0.5 0.85 0
1 0.85 0
1.5 0.85 0
2 0.85 0
2.5 0.85 0
3 0.85 0
3.5 0.85 0
4 0.85 0
4.5 0.85 0
5 0.85 0
0 0.9 0
0.5 0.9 0
1 0.9 0
1.5 0.9 0
2 0.9 0
2.5 0.9 0
3 0.9 0
3.5 0.9 0
4 0.9 0
4.5 0.9 0
5 0.9 0
0 0.95 0
0.5 0.95 0
1 0.95 0
1.5 0.95 0
2 0.95 0
2.5 0.95 0
3 0.95 0
3.5 0.95 0
4 0.95 0
4.5 0.95 0
5 0.95 0
0 1 0
0.5 1 0
1 1 0
1.5 1 0
2 1 0
2.5 1 0
3 1 0
3.5 1 0
4 1 0
4.5 1 0
5 1 0
0 0 0.1
0.5 0 0.1
1 0 0.1
1.5 0 0.1
2 0 0.1
2.5 0 0.1
3 0 0.1
3.5 0 0.1
4 0 0.1
4.5 0 0.1
5 0 0.1
0 0.05 0.1
0.5 0.05 0.1
1 0.05 0.1
1.5 0.05 0.1
2 0.05 0.1
2.5 0.05 0.1
3 0.05 0.1
3.5 0.05 0.1
4 0.05 0.1
4.5 0.05 0.1
5 0.05 0.1
0 0.1 0.1
0.5 0.1 0.1
1 0.1 0.1
1.5 0.1 0.1
2 0.1 0.1
2.5 0.1 0.1
3 0.1 0.1
3.5 0.1 0.1
4 0.1 0.1
4.5 0.1 0.1
5 0.1 0.1
0 0.15 0.1
0.5 0.15 0.1
1 0.15 0.1
1.5 0.15 0.1
2 0.15 0.1
2.5 0.15 0.1
3 0.15 0.1
3.5 0.15 0.1
4 0.15 0.1
4.5 0.15 0.1
5 0.15 0.1
0 0.2 0.1
0.5 0.2 0.1
1 0.2 0.1
1.5 0.2 0.1
2 0.2 0.1
2.5 0.2 0.1
3 0.2 0.1
3.5 0.2 0.1
4 0.2 0.1
4.5 0.2 0.1
5 0.2 0.1
0 0.25 0.1
0.5 0.25 0.1
1 0.25 0.1
1.5 0.25 0.1
2 0.25 0.1
2.5 0.25 0.1
3 0.25 0.1
3.5 0.25 0.1
4 0.25 0.1
4.5 0.25 0.1
5 0.25 0.1
0 0.3 0.1
0.5 0.3 0.1
1 0.3 0.1
1.5 0.3 0.1
2 0.3 0.1
2.5 0.3 0.1
3 0.3 0.1
3.5 0.3 0.1
4 0.3 0.1
4.5 0.3 0.1
5 0.3 0.1
0 0.35 0.1
0.5 0.35 0.1
1 0.35 0.1
1.5 0.35 0.1
2 0.35 0.1
2.5 0.35 0.1
3 0.35 0.1
3.5 0.35 0.1
4 0.35 0.1
4.5 0.35 0.1
5 0.35 0.1
0 0.4 0.1
0.5 0.4 0.1
1 0.4 0.1
1.5 0.4 0.1
2 0.4 0.1
2.5 0.4 0.1
3 0.4 0.1
3.5 0.4 0.1
4 0.4 0.1
4.5 0.4 0.1
5 0.4 0.1
0 0.45 0.1
0.5 0.45 0.1
1 0.45 0.1
1.5 0.45 0.1
2 0.45 0.1
2.5 0.45 0.1
3 0.45 0.1
3.5 0.45 0.1
4 0.45 0.1
4.5 0.45 0.1
5 0.45 0.1
0 0.5 0.1
0.5 0.5 0.1
1 0.5 0.1
1.5 0.5 0.1
2 0.5 0.1
2.5 0.5 0.1
3 0.5 0.1
3.5 0.5 0.1
4 0.5 0.1
4.5 0.5 0.1
5 0.5 0.1
0 0.55 0.1
0.5 0.55 0.1
1 0.55 0.1
1.5 0.55 0.1
2 0.55 0.1
2.5 0.55 0.1
3 0.55 0.1
3.5 0.55 0.1
4 0.55 0.1
4.5 0.55 0.1
5 0.55 0.1
0 0.6 0.1
0.5 0.6 0.1
1 0.6 0.1
1.5 0.6 0.1
2 0.6 0.1
2.5 0.6 0.1
3 0.6 0.1
3.5 0.6 0.1
4 0.6 0.1
4.5 0.6 0.1
5 0.6 0.1
0 0.65 0.1
0.5 0.65 0.1
1 0.65 0.1
1.5 0.65 0.1
2 0.65 0.1
2.5 0.65 0.1
3 0.65 0.1
3.5 0.65 0.1
4 0.65 0.1
4.5 0.65 0.1
5 0.65 0.1
0 0.7 0.1
0.5 0.7 0.1
1 0.7 0.1
1.5 0.7 0.1
2 0.7 0.1
2.5 0.7 0.1
3 0.7 0.1
3.5 0.7 0.1
4 0.7 0.1
4.5 0.7 0.1
5 0.7 0.1
0 0.75 0.1
0.5 0.75 0.1
1 0.75 0.1
1.5 0.75 0.1
2 0.75 0.1
2.5 0.75 0.1
3 0.75 0.1
3.5 0.75 0.1
4 0.75 0.1
4.5 0.75 0.1
5 0.75 0.1
0 0.8 0.1
0.5 0.8 0.1
1 0.8 0.1
1.5 0.8 0.1
2 0.8 0.1
2.5 0.8 0.1
3 0.8 0.1
3.5 0.8 0.1
4 0.8 0.1
4.5 0.8 0.1
5 0.8 0.1
0 0.85 0.1
0.5 0.85 0.1
1 0.85 0.1
1.5 0.85 0.1
2 0.85 0.1
2.5 0.85 0.1
3 0.85 0.1
3.5 0.85 0.1
4 0.85 0.1
4.5 0.85 0.1
5 0.85 0.1
0 0.9 0.1
0.5 0.9 0.1
1 0.9 0.1
1.5 0.9 0.1
2 0.9 0.1
2.5 0.9 0.1
3 0.9 0.1
3.5 0.9 0.1
4 0.9 0.1
4.5 0.9 0.1
5 0.9 0.1
0 0.95 0.1
0.5 0.95 0.1
1 0.95 0.1
1.5 0.95 0.1
2 0.95 0.1
2.5 0.95 0.1
3 0.95 0.1
3.5 0.95 0.1
4 0.95 0.1
4.5 0.95 0.1
5 0.95 0.1
0 1 0.1
0.5 1 0.1
1 1 0.1
1.5 1 0.1
2 1 0.1
2.5 1 0.1
3 1 0.1
3.5 1 0.1
4 1 0.1
4.5 1 0.1
5 1 0.1
0 0 0.2
0.5 0 0.2
1 0 0.2
1.5 0 0.2
2 0 0.2
2.5 0 0.2
3 0 0.2
3.5 0 0.2
4 0 0.2
4.5 0 0.2
5 0 0.2
0 0.05 0.2
0.5 0.05 0.2
1 0.05 0.2
1.5 0.05 0.2
2 0.05 0.2
2.5 0.05 0.2
3 0.05 0.2
3.5 0.05 0.2
4 0.05 0.2
4.5 0.05 0.2
5 0.05 0.2
0 0.1 0.2
0.5 0.1 0.2
1 0.1 0.2
1.5 0.1 0.2
2 0.1 0.2
2.5 0.1 0.2
3 0.1 0.2
3.5 0.1 0.2
4 0.1 0.2
4.5 0.1 0.2
5 0.1 0.2
0 0.15 0.2
0.5 0.15 0.2
1 0.15 0.2
1.5 0.15 0.2
2 0.15 0.2
2.5 0.15 0.2
3 0.15 0.2
3.5 0.15 0.2
4 0.15 0.2
4.5 0.15 0.2
5 0.15 0.2
0 0.2 0.2
0.5 0.2 0.2
1 0.2 0.2
1.5 0.2 0.2
2 0.2 0.2
2.5 0.2 0.2
3 0.2 0.2
3.5 0.2 0.2
4 0.2 0.2
4.5 0.2 0.2
5 0.2 0.2
0 0.25 0.2
0.5 0.25 0.2
1 0.25 0.2
1.5 0.25 0.2
2 0.25 0.2
2.5 0.25 0.2
3 0.25 0.2
3.5 0.25 0.2
4 0.25 0.2
4.5 0.25 0.2
5 0.25 0.2
0 0.3 0.2
0.5 0.3 0.2
1 0.3 0.2
1.5 0.3 0.2
2 0.3 0.2
2.5 0.3 0.2
3 0.3 0.2
3.5 0.3 0.2
4 0.3 0.2
4.5 0.3 0.2
5 0.3 0.2
0 0.35 0.2
0.5 0.35 0.2
1 0.35 0.2
1.5 0.35 0.2
2 0.35 0.2
2.5 0.35 0.2
3 0.35 0.2
3.5 0.35 0.2
4 0.35 0.2
4.5 0.35 0.2
5 0.35 0.2
0 0.4 0.2
0.5 0.4 0.2
1 0.4 0.2
1.5 0.4 0.2
2 0.4 0.2
2.5 0.4 0.2
3 0.4 0.2
3.5 0.4 0.2
4 0.4 0.2
4.5 0.4 0.2
5 0.4 0.2
0 0.45 0.2
0.5 0.45 0.2
1 0.45 0.2
1.5 0.45 0.2
2 0.45 0.2
2.5 0.45 0.2
3 0.45 0.2
3.5 0.45 0.2
4 0.45 0.2
4.5 0.45 0.2
5 0.45 0.2
0 0.5 0.2
0.5 0.5 0.2
1 0.5 0.2
1.5 0.5 0.2
2 0.5 0.2
2.5 0.5 0.2
3 0.5 0.2
3.5 0.5 0.2
4 0.5 0.2
4.5 0.5 0.2
5 0.5 0.2
0 0.55 0.2
0.5 0.55 0.2
1 0.55 0.2
1.5 0.55 0.2
2 0.55 0.2
2.5 0.55 0.2
3 0.55 0.2
3.5 0.55 0.2
4 0.55 0.2
4.5 0.55 0.2
5 0.55 0.2
0 0.6 0.2
0.5 0.6 0.2
1 0.6 0.2
1.5 0.6 0.2
2 0.6 0.2
2.5 0.6 0.2
3 0.6 0.2
3.5 0.6 0.2
4 0.6 0.2
4.5 0.6 0.2
5 0.6 0.2
0 0.65 0.2
0.5 0.65 0.2
1 0.65 0.2
1.5 0.65 0.2
2 0.65 0.2
2.5 0.65 0.2
3 0.65 0.2
3.5 0.65 0.2
4 0.65 0.2
4.5 0.65 0.2
5 0.65 0.2
0 0.7 0.2
0.5 0.7 0.2
1 0.7 0.2
1.5 0.7 0.2
2 0.7 0.2
2.5 0.7 0.2
3 0.7 0.2
3.5 0.7 0.2
4 0.7 0.2
4.5 0.7 0.2
5 0.7 0.2
0 0.75 0.2
0.5 0.75 0.2
1 0.75 0.2
1.5 0.75 0.2
2 0.75 0.2
2.5 0.75 0.2
3 0.75 0.2
3.5 0.75 0.2
4 0.75 0.2
4.5 0.75 0.2
5 0.75 0.2
0 0.8 0.2
0.5 0.8 0.2
1 0.8 0.2
1.5 0.8 0.2
2 0.8 0.2
2.5 0.8 0.2
3 0.8 0.2
3.5 0.8 0.2
4 0.8 0.2
4.5 0.8 0.2
5 0.8 0.2
0 0.85 0.2
0.5 0.85 0.2
1 0.85 0.2
1.5 0.85 0.2
2 0.85 0.2
2.5 0.85 0.2
3 0.85 0.2
3.5 0.85 0.2
4 0.85 0.2
4.5 0.85 0.2
5 0.85 0.2
0 0.9 0.2
0.5 0.9 0.2
1 0.9 0.2
1.5 0.9 0.2
2 0.9 0.2
2.5 0.9 0.2
3 0.9 0.2
3.5 0.9 0.2
4 0.9 0.2
4.5 0.9 0.2
5 0.9 0.2
0 0.95 0.2
0.5 0.95 0.2
1 0.95 0.2
1.5 0.95 0.2
2 0.95 0.2
2.5 0.95 0.2
3 0.95 0.2
3.5 0.95 0.2
4 0.95 0.2
4.5 0.95 0.2
5 0.95 0.2
0 1 0.2
0.5 1 0.2
1 1 0.2
1.5 1 0.2
2 1 0.2
2.5 1 0.2
3 1 0.2
3.5 1 0.2
4 1 0.2
4.5 1 0.2
5 1 0.2
0 0 0.3
0.5 0 0.3
1 0 0.3
1.5 0 0.3
2 0 0.3
2.5 0 0.3
3 0 0.3
3.5 0 0.3
4 0 0.3
4.5 0 0.3
5 0 0.3
0 0.05 0.3
0.5 0.05 0.3
1 0.05 0.3
1.5 0.05 0.3
2 0.05 0.3
2.5 0.05 0.3
3 0.05 0.3
3.5 0.05 0.3
4 0.05 0.3
4.5 0.05 0.3
5 0.05 0.3
0 0.1 0.3
0.5 0.1 0.3
1 0.1 0.3
1.5 0.1 0.3
2 0.1 0.3
2.5 0.1 0.3
3 0.1 0.3
3.5 0.1 0.3
4 0.1 0.3
4.5 0.1 0.3
5 0.1 0.3
0 0.15 0.3
0.5 0.15 0.3
1 0.15 0.3
1.5 0.15 0.3
2 0.15 0.3
2.5 0.15 0.3
3 0.15 0.3
3.5 0.15 0.3
4 0.15 0.3
4.5 0.15 0.3
5 0.15 0.3
0 0.2 0.3
0.5 0.2 0.3
1 0.2 0.3
1.5 0.2 0.3
2 0.2 0.3
2.5 0.2 0.3
3 0.2 0.3
3.5 0.2 0.3
4 0.2 0.3
4.5 0.2 0.3
5 0.2 0.3
0 0.25 0.3
0.5 0.25 0.3
1 0.25 0.3
1.5 0.25 0.3
2 0.25 0.3
2.5 0.25 0.3
3 0.25 0.3
3.5 0.25 0.3
4 0.25 0.3
4.5 0.25 0.3
5 0.25 0.3
0 0.3 0.3
0.5 0.3 0.3
1 0.3 0.3
1.5 0.3 0.3
2 0.3 0.3
2.5 0.3 0.3
3 0.3 0.3
3.5 0.3 0.3
4 0.3 0.3
4.5 0.3 0.3
5 0.3 0.3
0 0.35 0.3
0.5 0.35 0.3
1 0.35 0.3
1.5 0.35 0.3
2 0.35 0.3
2.5 0.35 0.3
3 0.35 0.3
3.5 0.35 0.3
4 0.35 0.3
4.5 0.35 0.3
5 0.35 0.3
0 0.4 0.3
0.5 0.4 0.3
1 0.4 0.3
1.5 0.4 0.3
2 0.4 0.3
2.5 0.4 0.3
3 0.4 0.3
3.5 0.4 0.3
4 0.4 0.3
4.5 0.4 0.3
5 0.4 0.3
0 0.45 0.3
0.5 0.45 0.3
1 0.45 0.3
1.5 0.45 0.3
2 0.45 0.3
2.5 0.45 0.3
3 0.45 0.3
3.5 0.45 0.3
4 0.45 0.3
4.5 0.45 0.3
5 0.45 0.3
0 0.5 0.3
0.5 0.5 0.3
1 0.5 0.3
1.5 0.5 0.3
2 0.5 0.3
2.5 0.5 0.3
3 0.5 0.3
3.5 0.5 0.3
4 0.5 0.3
4.5 0.5 0.3
5 0.5 0.3
0 0.55 0.3
0.5 0.55 0.3
1 0.55 0.3
1.5 0.55 0.3
2 0.55 0.3
2.5 0.55 0.3
3 0.55 0.3
3.5 0.55 0.3
4 0.55 0.3
4.5 0.55 0.3
5 0.55 0.3
0 0.6 0.3
0.5 0.6 0.3
1 0.6 0.3
1.5 0.6 0.3
2 0.6 0.3
2.5 0.6 0.3
3 0.6 0.3
3.5 0.6 0.3
4 0.6 0.3
4.5 0.6 0.3
5 0.6 0.3
0 0.65 0.3
0.5 0.65 0.3
1 0.65 0.3
1.5 0.65 0.3
2 0.65 0.3
2.5 0.65 0.3
3 0.65 0.3
3.5 0.65 0.3
4 0.65 0.3
4.5 0.65 0.3
5 0.65 0.3
0 0.7 0.3
0.5 0.7 0.3
1 0.7 0.3
1.5 0.7 0.3
2 0.7 0.3
2.5 0.7 0.3
3 0.7 0.3
3.5 0.7 0.3
4 0.7 0.3
4.5 0.7 0.3
5 0.7 0.3
0 0.75 0.3
0.5 0.75 0.3
1 0.75 0.3
1.5 0.75 0.3
2 0.75 0.3
2.5 0.75 0.3
3 0.75 0.3
3.5 0.75 0.3
4 0.75 0.3
4.5 0.75 0.3
5 0.75 0.3
0 0.8 0.3
0.5 0.8 0.3
1 0.8 0.3
1.5 0.8 0.3
2 0.8 0.3
2.5 0.8 0.3
3 0.8 0.3
3.5 0.8 0.3
4 0.8 0.3
4.5 0.8 0.3
5 0.8 0.3
0 0.85 0.3
0.5 0.85 0.3
1 0.85 0.3
1.5 0.85 0.3
2 0.85 0.3
2.5 0.85 0.3
3 0.85 0.3
3.5 0.85 0.3
4 0.85 0.3
4.5 0.85 0.3
5 0.85 0.3
0 0.9 0.3
0.5 0.9 0.3
1 0.9 0.3
1.5 0.9 0.3
2 0.9 0.3
2.5 0.9 0.3
3 0.9 0.3
3.5 0.9 0.3
4 0.9 0.3
4.5 0.9 0.3
5 0.9 0.3
0 0.95 0.3
0.5 0.95 0.3
1 0.95 0.3
1.5 0.95 0.3
2 0.95 0.3
2.5 0.95 0.3
3 0.95 0.3
3.5 0.95 0.3
4 0.95 0.3
4.5 0.95 0.3
5 0.95 0.3
0 1 0.3
0.5 1 0.3
1 1 0.3
1.5 1 0.3
2 1 0.3
2.5 1 0.3
3 1 0.3
3.5 1 0.3
4 1 0.3
4.5 1 0.3
5 1 0.3
0 0 0.4
[...]
CELL_DATA 2000
SCALARS pressure float 1
LOOKUP_TABLE default
0
0
0.903446
1.01604
0.83524
0.672605
0.513647
0.355628
0.197041
0.024338
0
0
0.90249
1.00816
0.834585
0.672477
0.513617
0.355623
0.197077
0.0270355
0
0
0.863961
1.00355
0.833682
0.672303
0.513576
0.35562
0.197172
0.0294714
0
0
0.854284
0.993093
0.83263
0.672097
0.513526
0.355616
0.197299
0.0314963
1.68892
1.83121
0.865924
0.983863
0.831474
0.671865
0.513469
0.355612
0.197437
0.0331423
1.68436
1.81818
0.899409
0.977207
0.830326
0.671617
0.513406
0.355606
0.19757
0.0344516
1.67528
1.79947
0.939433
0.973142
0.829261
0.671361
0.513338
0.355599
0.197687
0.0354587
1.66255
1.77886
0.981379
0.971144
0.828326
0.671103
0.513267
0.355588
0.19778
0.0361908
1.64911
1.75856
1.0205
0.970697
0.827539
0.670851
0.513194
0.355573
0.197844
0.0366677
1.63704
1.7397
1.05564
0.971344
0.826894
0.670607
0.513119
0.355556
0.197873
0.0369023
1.62717
1.72277
1.08649
0.972714
0.826376
0.670375
0.513046
0.355534
0.197867
0.0369012
1.62003
1.70793
1.11308
0.974501
0.825964
0.670157
0.512973
0.355509
0.197826
0.0366644
1.61617
1.69517
1.13558
0.97646
0.825633
0.669953
0.512903
0.355482
0.197752
0.0361854
1.6157
1.68443
1.15426
0.978393
0.82536
0.669764
0.512837
0.355453
0.197648
0.0354513
1.6184
1.67563
1.16941
0.980141
0.825122
0.669589
0.512774
0.355424
0.19752
0.0344422
1.624
1.66872
1.18129
0.981583
0.824897
0.669429
0.512717
0.355396
0.197378
0.0331311
1.63196
1.66367
1.19014
0.982625
0.824668
0.669282
0.512666
0.35537
0.197232
0.0314835
1.64039
1.66043
1.19619
0.983197
0.824422
0.66915
0.512622
0.355347
0.197098
0.0294573
1.64658
1.65903
1.19963
0.983274
0.824156
0.669034
0.512585
0.355331
0.196998
0.0270203
1.64971
1.65919
1.20044
0.982873
0.823888
0.668941
0.512558
0.355321
0.196959
0.0243221
0
0
0.911558
1.0119
0.834951
0.672533
0.513631
0.35564
0.19725
0.0289892
0
0
0.909102
1.00517
0.834128
0.672379
0.513596
0.355634
0.197297
0.0325323
0
0
0.871124
1.00094
0.833263
0.672205
0.513555
0.35563
0.197415
0.0350921
0
0
0.885981
0.993126
0.832219
0.672003
0.513506
0.355628
0.197555
0.0371645
1.67209
1.85531
0.818069
0.982341
0.831095
0.671781
0.513452
0.355625
0.1977
0.038841
1.66675
1.85781
0.850985
0.973631
0.829982
0.671546
0.513391
0.355621
0.197838
0.04017
1.65813
1.82608
0.907815
0.970144
0.828981
0.671304
0.513327
0.355614
0.197958
0.0411898
1.64714
1.7964
0.960537
0.969168
0.828124
0.671062
0.513259
0.355604
0.198053
0.0419299
1.63455
1.77065
1.00744
0.969477
0.827416
0.670826
0.513189
0.355591
0.198117
0.0424115
1.62192
1.74851
1.04766
0.97067
0.826844
0.670599
0.513119
0.355574
0.198147
0.0426484
1.61159
1.7294
1.08182
0.972432
0.826391
0.670383
0.513049
0.355554
0.198142
0.0426473
1.6043
1.71301
1.11056
0.974502
0.826036
0.670179
0.512981
0.35553
0.1981
0.0424084
1.60029
1.69905
1.13449
0.976665
0.825753
0.669989
0.512914
0.355503
0.198025
0.0419248
1.59971
1.6873
1.15409
0.978744
0.825521
0.669813
0.512851
0.355475
0.19792
0.0411827
1.60263
1.67755
1.16979
0.980597
0.825316
0.669649
0.512792
0.355446
0.19779
0.0401611
1.60859
1.66954
1.18195
0.982112
0.825118
0.669497
0.512737
0.355417
0.197643
0.0388304
1.61555
1.66326
1.1909
0.983203
0.82491
0.669358
0.512687
0.355391
0.19749
0.0371524
1.62222
1.65887
1.19688
0.983809
0.824681
0.669231
0.512644
0.355369
0.197344
0.0350787
1.62807
1.65664
1.20013
0.983873
0.824415
0.669115
0.512607
0.355351
0.19722
0.0325178
1.6325
1.65726
1.20071
0.983316
0.824088
0.669004
0.512576
0.355341
0.19717
0.0289738
0
0
0.920829
1.01043
0.834808
0.672478
0.513618
0.355662
0.197559
0.0323818
0
0
0.917057
1.0047
0.833986
0.672321
0.513582
0.355656
0.197613
0.0360544
0
0
0.886318
1.00162
0.833167
0.672149
0.513541
0.355654
0.19774
0.0386937
0
0
0.902532
0.995494
0.832194
0.671953
0.513494
0.355652
0.197889
0.0408198
1.65561
1.8582
0.80075
0.984904
0.831111
0.671739
0.513441
0.35565
0.198041
0.0425322
1.64953
1.89181
0.795008
0.973656
0.829975
0.67151
0.513382
0.355647
0.198183
0.0438854
1.64315
1.86776
0.862742
0.967423
0.828908
0.671275
0.51332
0.355642
0.198307
0.0449216
1.63981
1.82839
0.932827
0.96621
0.828012
0.671041
0.513255
0.355633
0.198405
0.0456723
1.63788
1.79406
0.989483
0.967154
0.827306
0.670813
0.513188
0.355621
0.19847
0.0461602
1.63547
1.76538
1.03616
0.96895
0.826759
0.670595
0.513121
0.355604
0.198501
0.0464001
1.63185
1.74171
1.07476
0.971205
0.82634
0.670388
0.513054
0.355585
0.198496
0.0463991
1.62735
1.72221
1.10659
0.97367
0.826019
0.670194
0.512988
0.355561
0.198454
0.0461572
1.62319
1.70619
1.13267
0.976145
0.825772
0.670013
0.512924
0.355535
0.198378
0.0456673
1.61943
1.69314
1.15373
0.978471
0.825573
0.669844
0.512863
0.355507
0.19827
0.0449148
1.61513
1.6826
1.17039
0.980517
0.825397
0.669688
0.512805
0.355478
0.198137
0.0438769
1.61034
1.67409
1.18305
0.982185
0.825226
0.669543
0.512752
0.35545
0.197985
0.042522
1.60629
1.66697
1.19205
0.983402
0.825044
0.669409
0.512704
0.355423
0.197826
0.0408081
1.60542
1.66129
1.19785
0.984092
0.824833
0.669286
0.512662
0.3554
0.197671
0.0386808
1.60948
1.65795
1.2009
0.984185
0.824573
0.66917
0.512625
0.355382
0.197538
0.0360404
1.61524
1.65811
1.20134
0.983615
0.824238
0.669057
0.512593
0.35537
0.19748
0.0323669
0
0
0.924079
1.01049
0.834775
0.672446
0.51361
0.355684
0.197824
0.0345041
0
0
0.919917
1.00507
0.833968
0.672289
0.513574
0.35568
0.19788
0.0382039
0
0
0.888358
1.00255
0.833181
0.67212
0.513534
0.355678
0.198012
0.0408728
0
0
0.899262
0.997155
0.832257
0.671929
0.513487
0.355677
0.198164
0.0430246
1.64744
1.8759
0.793407
0.986938
0.831225
0.67172
0.513435
0.355675
0.19832
0.0447576
1.64155
1.91546
0.771822
0.975266
0.83012
0.671498
0.513378
0.355673
0.198466
0.0461265
1.63785
1.89681
0.826867
0.967605
0.829017
0.671268
0.513317
0.355668
0.198592
0.0471741
1.64157
1.85484
0.905383
0.965097
0.82804
0.671036
0.513254
0.35566
0.198691
0.0479327
1.65215
1.81456
0.972318
0.965649
0.827266
0.670809
0.513189
0.355648
0.198758
0.0484256
1.66477
1.77981
1.02542
0.967458
0.826683
0.670592
0.513123
0.355633
0.19879
0.0486679
1.67362
1.74997
1.06821
0.969847
0.826249
0.670388
0.513057
0.355613
0.198785
0.0486669
1.67577
1.72548
1.1031
0.972499
0.825929
0.670197
0.512993
0.35559
0.198742
0.0484227
1.67153
1.70702
1.13146
0.975184
0.825691
0.67002
0.51293
0.355564
0.198665
0.0479279
1.66084
1.69408
1.15403
0.977743
0.825511
0.669856
0.512871
0.355536
0.198556
0.0471675
1.64357
1.68482
1.17133
0.980049
0.82537
0.669706
0.512815
0.355507
0.19842
0.0461182
1.62315
1.67715
1.18407
0.981962
0.82524
0.669567
0.512763
0.355479
0.198266
0.0447477
1.60623
1.67021
1.19298
0.983354
0.82509
0.669438
0.512716
0.355452
0.198102
0.0430133
1.59838
1.66421
1.19866
0.984148
0.824899
0.669317
0.512674
0.355429
0.197944
0.0408602
1.60013
1.66025
1.20159
0.984293
0.82465
0.669203
0.512637
0.35541
0.197807
0.0381903
1.60601
1.66008
1.20194
0.983739
0.824319
0.66909
0.512605
0.355398
0.197747
0.0344895
0
0
0.924034
1.0107
0.834781
0.672433
0.513606
0.355698
0.197973
0.0355176
0
0
0.919235
1.00539
0.83398
0.672276
0.513571
0.355694
0.19803
0.0392243
0
0
0.886121
1.00305
0.833209
0.672108
0.513531
0.355692
0.198162
0.0419029
0
0
0.89496
0.997906
0.832309
0.67192
0.513485
0.355691
0.198316
0.0440645
1.64462
1.88738
0.787461
0.987874
0.831301
0.671714
0.513433
0.35569
0.198474
0.0458062
1.63901
1.92839
0.764165
0.976214
0.830218
0.671495
0.513377
0.355688
0.198621
0.0471822
1.63753
1.91082
0.814567
0.968417
0.829131
0.671269
0.513317
0.355684
0.198749
0.0482353
1.64634
1.86837
0.890167
0.965582
0.828146
0.67104
0.513254
0.355676
0.198849
0.0489979
1.66427
1.82574
0.959763
0.965591
0.827324
0.670813
0.513189
0.355664
0.198917
0.0494933
1.68582
1.7874
1.01776
0.966882
0.82667
0.670593
0.513124
0.355649
0.198949
0.0497368
1.70359
1.75369
1.06462
0.96895
0.826175
0.670386
0.513059
0.35563
0.198943
0.0497359
1.71095
1.72572
1.10203
0.971523
0.825821
0.670193
0.512995
0.355607
0.198901
0.0494904
1.70661
1.70573
1.13155
0.974352
0.825589
0.670018
0.512933
0.355581
0.198823
0.0489931
1.69051
1.69333
1.15445
0.977164
0.825442
0.669858
0.512875
0.355553
0.198713
0.0482288
1.66406
1.68518
1.17182
0.979699
0.825334
0.669712
0.512819
0.355524
0.198576
0.047174
1.63443
1.67854
1.18458
0.981772
0.82523
0.669577
0.512768
0.355496
0.19842
0.0457964
1.60999
1.6721
1.19347
0.983271
0.825099
0.66945
0.512721
0.355469
0.198255
0.0440533
1.59709
1.66611
1.19911
0.984131
0.824921
0.669332
0.51268
0.355445
0.198095
0.0418904
1.59677
1.66189
1.20199
0.984312
0.824679
0.669219
0.512644
0.355427
0.197957
0.0392108
1.60253
1.66156
1.2023
0.983771
0.824352
0.669106
0.512612
0.355414
0.197896
0.0355032
0
0
0.924034
1.0107
0.834781
0.672433
0.513606
0.355698
0.197973
0.0355176
0
0
0.919235
1.00539
0.83398
0.672276
0.513571
0.355694
0.19803
0.0392243
0
0
0.886121
1.00305
0.833209
0.672108
0.513531
0.355692
0.198162
0.0419029
0
0
0.89496
0.997906
0.832309
0.67192
0.513485
0.355691
0.198316
0.0440645
1.64462
1.88738
0.787461
0.987874
0.831301
0.671714
0.513433
0.35569
0.198474
0.0458062
1.63901
1.92839
0.764165
0.976214
0.830218
0.671495
0.513377
0.355688
0.198621
0.0471822
1.63753
1.91082
0.814567
0.968417
0.829131
0.671269
0.513317
0.355684
0.198749
0.0482353
1.64634
1.86837
0.890167
0.965582
0.828146
0.67104
0.513254
0.355676
0.198849
0.0489979
1.66427
1.82574
0.959763
0.965591
0.827324
0.670813
0.513189
0.355664
0.198917
0.0494933
1.68582
1.7874
1.01776
0.966882
0.82667
0.670593
0.513124
0.355649
0.198949
0.0497368
1.70359
1.75369
1.06462
0.96895
0.826175
0.670386
0.513059
0.35563
0.198943
0.0497359
1.71095
1.72572
1.10203
0.971523
0.825821
0.670193
0.512995
0.355607
0.198901
0.0494904
1.70661
1.70573
1.13155
0.974352
0.825589
0.670018
0.512933
0.355581
0.198823
0.0489931
1.69051
1.69333
1.15445
0.977164
0.825442
0.669858
0.512875
0.355553
0.198713
0.0482288
1.66406
1.68518
1.17182
0.979699
0.825334
0.669712
0.512819
0.355524
0.198576
0.047174
1.63443
1.67854
1.18458
0.981772
0.82523
0.669577
0.512768
0.355496
0.19842
0.0457964
1.60999
1.6721
1.19347
0.983271
0.825099
0.66945
0.512721
0.355469
0.198255
0.0440533
1.59709
1.66611
1.19911
0.984131
0.824921
0.669332
0.51268
0.355445
0.198095
0.0418904
1.59677
1.66189
1.20199
0.984312
0.824679
0.669219
0.512644
0.355427
0.197957
0.0392108
1.60253
1.66156
1.2023
0.983771
0.824352
0.669106
0.512612
0.355414
0.197896
0.0355032
0
0
0.924079
1.01049
0.834775
0.672446
0.51361
0.355684
0.197824
0.0345041
0
0
0.919917
1.00507
0.833968
0.672289
0.513574
0.35568
0.19788
0.0382039
0
0
0.888358
1.00255
0.833181
0.67212
0.513534
0.355678
0.198012
0.0408728
0
0
0.899262
0.997155
0.832257
0.671929
0.513487
0.355677
0.198164
0.0430246
1.64744
1.8759
0.793407
0.986938
0.831225
0.67172
0.513435
0.355675
0.19832
0.0447576
1.64155
1.91546
0.771822
0.975266
0.83012
0.671498
0.513378
0.355673
0.198466
0.0461265
1.63785
1.89681
0.826867
0.967605
0.829017
0.671268
0.513317
0.355668
0.198592
0.0471741
1.64157
1.85484
0.905383
0.965097
0.82804
0.671036
0.513254
0.35566
0.198691
0.0479327
1.65215
1.81456
0.972318
0.965649
0.827266
0.670809
0.513189
0.355648
0.198758
0.0484256
1.66477
1.77981
1.02542
0.967458
0.826683
0.670592
0.513123
0.355633
0.19879
0.0486679
1.67362
1.74997
1.06821
0.969847
0.826249
0.670388
0.513057
0.355613
0.198785
0.0486669
1.67577
1.72548
1.1031
0.972499
0.825929
0.670197
0.512993
0.35559
0.198742
0.0484227
1.67153
1.70702
1.13146
0.975184
0.825691
0.67002
0.51293
0.355564
0.198665
0.0479279
1.66084
1.69408
1.15403
0.977743
0.825511
0.669856
0.512871
0.355536
0.198556
0.0471675
1.64357
1.68482
1.17133
0.980049
0.82537
0.669706
0.512815
0.355507
0.19842
0.0461182
1.62315
1.67715
1.18407
0.981962
0.82524
0.669567
0.512763
0.355479
0.198266
0.0447477
1.60623
1.67021
1.19298
0.983354
0.82509
0.669438
0.512716
0.355452
0.198102
0.0430133
1.59838
1.66421
1.19866
0.984148
0.824899
0.669317
0.512674
0.355429
0.197944
0.0408602
1.60013
1.66025
1.20159
0.984293
0.82465
0.669203
0.512637
0.35541
0.197807
0.0381903
1.60601
1.66008
1.20194
0.983739
0.824319
0.66909
0.512605
0.355398
0.197747
0.0344895
0
0
0.920829
1.01043
0.834808
0.672478
0.513618
0.355662
0.197559
0.0323818
0
0
0.917057
1.0047
0.833986
0.672321
0.513582
0.355656
0.197613
0.0360544
0
0
0.886318
1.00162
0.833167
0.672149
0.513541
0.355654
0.19774
0.0386937
0
0
0.902532
0.995494
0.832194
0.671953
0.513494
0.355652
0.197889
0.0408198
1.65561
1.8582
0.80075
0.984904
0.831111
0.671739
0.513441
0.35565
0.198041
0.0425322
1.64953
1.89181
0.795008
0.973656
0.829975
0.67151
0.513382
0.355647
0.198183
0.0438854
1.64315
1.86776
0.862742
0.967423
0.828908
0.671275
0.51332
0.355642
0.198307
0.0449216
1.63981
1.82839
0.932827
0.96621
0.828012
0.671041
0.513255
0.355633
0.198405
0.0456723
1.63788
1.79406
0.989483
0.967154
0.827306
0.670813
0.513188
0.355621
0.19847
0.0461602
1.63547
1.76538
1.03616
0.96895
0.826759
0.670595
0.513121
0.355604
0.198501
0.0464001
1.63185
1.74171
1.07476
0.971205
0.82634
0.670388
0.513054
0.355585
0.198496
0.0463991
1.62735
1.72221
1.10659
0.97367
0.826019
0.670194
0.512988
0.355561
0.198454
0.0461572
1.62319
1.70619
1.13267
0.976145
0.825772
0.670013
0.512924
0.355535
0.198378
0.0456673
1.61943
1.69314
1.15373
0.978471
0.825573
0.669844
0.512863
0.355507
0.19827
0.0449148
1.61513
1.6826
1.17039
0.980517
0.825397
0.669688
0.512805
0.355478
0.198137
0.0438769
1.61034
1.67409
1.18305
0.982185
0.825226
0.669543
0.512752
0.35545
0.197985
0.042522
1.60629
1.66697
1.19205
0.983402
0.825044
0.669409
0.512704
0.355423
0.197826
0.0408081
1.60542
1.66129
1.19785
0.984092
0.824833
0.669286
0.512662
0.3554
0.197671
0.0386808
1.60948
1.65795
1.2009
0.984185
0.824573
0.66917
0.512625
0.355382
0.197538
0.0360404
1.61524
1.65811
1.20134
0.983615
0.824238
0.669057
0.512593
0.35537
0.19748
0.0323669
0
0
0.911558
1.0119
0.834951
0.672533
0.513631
0.35564
0.19725
0.0289892
0
0
0.909102
1.00517
0.834128
0.672379
0.513596
0.355634
0.197297
0.0325323
0
0
0.871124
1.00094
0.833263
0.672205
0.513555
0.35563
0.197415
0.0350921
0
0
0.885981
0.993126
0.832219
0.672003
0.513506
0.355628
0.197555
0.0371645
1.67209
1.85531
0.818069
0.982341
0.831095
0.671781
0.513452
0.355625
0.1977
0.038841
1.66675
1.85781
0.850985
0.973631
0.829982
0.671546
0.513391
0.355621
0.197838
0.04017
1.65813
1.82608
0.907815
0.970144
0.828981
0.671304
0.513327
0.355614
0.197958
0.0411898
1.64714
1.7964
0.960537
0.969168
0.828124
0.671062
0.513259
0.355604
0.198053
0.0419299
1.63455
1.77065
1.00744
0.969477
0.827416
0.670826
0.513189
0.355591
0.198117
0.0424115
1.62192
1.74851
1.04766
0.97067
0.826844
0.670599
0.513119
0.355574
0.198147
0.0426484
1.61159
1.7294
1.08182
0.972432
0.826391
0.670383
0.513049
0.355554
0.198142
0.0426473
1.6043
1.71301
1.11056
0.974502
0.826036
0.670179
0.512981
0.35553
0.1981
0.0424084
1.60029
1.69905
1.13449
0.976665
0.825753
0.669989
0.512914
0.355503
0.198025
0.0419248
1.59971
1.6873
1.15409
0.978744
0.825521
0.669813
0.512851
0.355475
0.19792
0.0411827
1.60263
1.67755
1.16979
0.980597
0.825316
0.669649
0.512792
0.355446
0.19779
0.0401611
1.60859
1.66954
1.18195
0.982112
0.825118
0.669497
0.512737
0.355417
0.197643
0.0388304
1.61555
1.66326
1.1909
0.983203
0.82491
0.669358
0.512687
0.355391
0.19749
0.0371524
1.62222
1.65887
1.19688
0.983809
0.824681
0.669231
0.512644
0.355369
0.197344
0.0350787
1.62807
1.65664
1.20013
0.983873
0.824415
0.669115
0.512607
0.355351
0.19722
0.0325178
1.6325
1.65726
1.20071
0.983316
0.824088
0.669004
0.512576
0.355341
0.19717
0.0289738
0
0
0.903446
1.01604
0.83524
0.672605
0.513647
0.355628
0.197041
0.024338
0
0
0.90249
1.00816
0.834585
0.672477
0.513617
0.355623
0.197077
0.0270355
0
0
0.863961
1.00355
0.833682
0.672303
0.513576
0.35562
0.197172
0.0294714
0
0
0.854284
0.993093
0.83263
0.672097
0.513526
0.355616
0.197299
0.0314963
1.68892
1.83121
0.865924
0.983863
0.831474
0.671865
0.513469
0.355612
0.197437
0.0331423
1.68436
1.81818
0.899409
0.977207
0.830326
0.671617
0.513406
0.355606
0.19757
0.0344516
1.67528
1.79947
0.939433
0.973142
0.829261
0.671361
0.513338
0.355599
0.197687
0.0354587
1.66255
1.77886
0.981379
0.971144
0.828326
0.671103
0.513267
0.355588
0.19778
0.0361908
1.64911
1.75856
1.0205
0.970697
0.827539
0.670851
0.513194
0.355573
0.197844
0.0366677
1.63704
1.7397
1.05564
0.971344
0.826894
0.670607
0.513119
0.355556
0.197873
0.0369023
1.62717
1.72277
1.08649
0.972714
0.826376
0.670375
0.513046
0.355534
0.197867
0.0369012
1.62003
1.70793
1.11308
0.974501
0.825964
0.670157
0.512973
0.355509
0.197826
0.0366644
1.61617
1.69517
1.13558
0.97646
0.825633
0.669953
0.512903
0.355482
0.197752
0.0361854
1.6157
1.68443
1.15426
0.978393
0.82536
0.669764
0.512837
0.355453
0.197648
0.0354513
1.6184
1.67563
1.16941
0.980141
0.825122
0.669589
0.512774
0.355424
0.19752
0.0344422
1.624
1.66872
1.18129
0.981583
0.824897
0.669429
0.512717
0.355396
0.197378
0.0331311
1.63196
1.66367
1.19014
0.982625
0.824668
0.669282
0.512666
0.35537
0.197232
0.0314835
1.64039
1.66043
1.19619
0.983197
0.824422
0.66915
0.512622
0.355347
0.197098
0.0294573
1.64658
1.65903
1.19963
0.983274
0.824156
0.669034
0.512585
0.355331
0.196998
0.0270203
1.64971
1.65919
1.20044
0.982873
0.823888
0.668941
0.512558
0.355321
0.196959
0.0243221

VECTORS velocity float
0 0 0
0 0 0
0.810893 -0.0331713 -7.66553e-05
0.6955 -0.00342505 0.000622744
0.734111 -0.000785558 7.61909e-05
0.743235 -0.000172646 1.54997e-05
0.745258 -3.9096e-05 3.29284e-06
0.745741 -1.00329e-05 -1.65058e-06
0.746161 -1.5264e-05 -3.1733e-05
0.7592 -0.000893277 -0.000758866
0 0 0
0 0 0
-0.155893 -0.098647 0.000105043
0.704708 -0.0130427 0.000485173
0.773115 -0.00250623 8.86448e-05
0.783887 -0.000540872 1.83845e-05
0.786173 -0.000122309 3.90507e-06
0.786715 -3.13443e-05 -1.60042e-06
0.78721 -5.09112e-05 -3.40603e-05
0.791182 -0.00171059 -0.00087148
0 0 0
0 0 0
0.829144 -0.166711 0.00136498
0.734909 -0.0227612 0.000414956
0.776195 -0.00429053 7.80821e-05
0.786082 -0.000923781 1.76115e-05
0.788274 -0.000208944 3.81106e-06
0.788795 -5.32877e-05 -1.69099e-06
0.789218 -8.41591e-05 -3.59143e-05
0.792613 -0.00149786 -0.000890777
0 0 0
0 0 0
-0.14105 -0.236555 0.000783778
0.72176 -0.0311276 0.000135729
0.777125 -0.00593766 6.78258e-05
0.786406 -0.00128329 1.61653e-05
0.788422 -0.000290698 3.5265e-06
0.788902 -7.35158e-05 -1.82347e-06
0.789253 -0.000103062 -3.71564e-05
0.792744 -0.0012355 -0.000900224
0.442439 -0.0187607 -0.0406197
0.894408 0.00504971 -0.022421
0.837722 -0.264311 0.0109411
0.746153 -0.0389911 0.000763401
0.778919 -0.00740702 7.25764e-05
0.786714 -0.00160704 1.4459e-05
0.788491 -0.000364803 3.1208e-06
0.788915 -9.12723e-05 -1.97299e-06
0.789204 -0.000109859 -3.78744e-05
0.792807 -0.000997716 -0.0009056
0.511256 -0.0504088 -0.0474197
0.98783 0.0086845 -0.0192902
0.924556 -0.246619 0.0120467
0.763288 -0.0437822 0.00101461
0.780882 -0.00861241 7.04161e-05
0.787078 -0.00188561 1.22593e-05
0.788569 -0.00042927 2.61115e-06
0.788929 -0.000106095 -2.1376e-06
0.789165 -0.000107291 -3.8339e-05
0.792858 -0.000784528 -0.000908899
0.55582 -0.0693539 -0.053961
0.987014 0.00487268 -0.0153689
0.929353 -0.222997 0.00717971
0.775105 -0.0463369 0.000728076
0.782938 -0.00953427 5.46917e-05
0.787489 -0.00211192 9.56252e-06
0.788659 -0.000482441 2.0228e-06
0.788946 -0.000117659 -2.31064e-06
0.789136 -9.75189e-05 -3.86479e-05
0.792897 -0.000591327 -0.000910947
0.593496 -0.0754507 -0.0601735
0.981215 0.000397911 -0.0131359
0.927454 -0.198742 0.00404848
0.785048 -0.0471357 0.00046157
0.785068 -0.0101618 3.79953e-05
0.787935 -0.00228067 6.69874e-06
0.788759 -0.000522995 1.38212e-06
0.788966 -0.000125766 -2.48724e-06
0.789117 -8.23156e-05 -3.88559e-05
0.792927 -0.000413386 -0.000912206
0.624149 -0.0705168 -0.0656412
0.976071 -0.00301606 -0.0120174
0.925328 -0.175435 0.00221927
0.793754 -0.0465461 0.000273101
0.787205 -0.0104958 2.19885e-05
0.788403 -0.00238846 3.78428e-06
0.788864 -0.000549971 7.11107e-07
0.788988 -0.000130326 -2.66311e-06
0.789106 -6.3182e-05 -3.89942e-05
0.792947 -0.000246128 -0.000912935
0.647543 -0.056684 -0.0700776
0.971577 -0.00482898 -0.0114948
0.923358 -0.15361 0.00106054
0.801329 -0.0448577 0.000140347
0.789288 -0.0105468 7.70507e-06
0.78888 -0.00243376 9.23036e-07