# vtk DataFile Version 2.0
TestTestTest
ASCII

DATASET STRUCTURED_GRID
DIMENSIONS 11 21 11
POINTS 2541 float
0 0 0
0.5 0 0
1 0 0
1.5 0 0
2 0 0
2.5 0 0
3 0 0
3.5 0 0
4 0 0
4.5 0 0
5 0 0
0 0.05 0
0.5 0.05 0
1 0.05 0
1.5 0.05 0
2 0.05 0
2.5 0.05 0
3 0.05 0
3.5 0.05 0
4 0.05 0
4.5 0.05 0
5 0.05 0
0 0.1 0
0.5 0.1 0
1 0.1 0
1.5 0.1 0
2 0.1 0
2.5 0.1 0
3 0.1 0
3.5 0.1 0
4 0.1 0
4.5 0.1 0
5 0.1 0
0 0.15 0
0.5 0.15 0
1 0.15 0
1.5 0.15 0
2 0.15 0
2.5 0.15 0
3 0.15 0
3.5 0.15 0
4 0.15 0
4.5 0.15 0
5 0.15 0
0 0.2 0
0.5 0.2 0
1 0.2 0
1.5 0.2 0
2 0.2 0
2.5 0.2 0
3 0.2 0
3.5 0.2 0
4 0.2 0
4.5 0.2 0
5 0.2 0
0 0.25 0
0.5 0.25 0
1 0.25 0
1.5 0.25 0
2 0.25 0
2.5 0.25 0
3 0.25 0
3.5 0.25 0
4 0.25 0
4.5 0.25 0
5 0.25 0
0 0.3 0
0.5 0.3 0
1 0.3 0
1.5 0.3 0
2 0.3 0
2.5 0.3 0
3 0.3 0
3.5 0.3 0
4 0.3 0
4.5 0.3 0
5 0.3 0
0 0.35 0
0.5 0.35 0
1 0.35 0
1.5 0.35 0
2 0.35 0
2.5 0.35 0
3 0.35 0
3.5 0.35 0
4 0.35 0
4.5 0.35 0
5 0.35 0
0 0.4 0
0.5 0.4 0
1 0.4 0
1.5 0.4 0
2 0.4 0
2.5 0.4 0
3 0.4 0
3.5 0.4 0
4 0.4 0
4.5 0.4 0
5 0.4 0
0 0.45 0
0.5 0.45 0
1 0.45 0
1.5 0.45 0
2 0.45 0
2.5 0.45 0
3 0.45 0
3.5 0.45 0
4 0.45 0
4.5 0.45 0
5 0.45 0
0 0.5 0
0.5 0.5 0
1 0.5 0
1.5 0.5 0
2 0.5 0
2.5 0.5 0
3 0.5 0
3.5 0.5 0
4 0.5 0
4.5 0.5 0
5 0.5 0
0 0.55 0
0.5 0.55 0
1 0.55 0
1.5 0.55 0
2 0.55 0
2.5 0.55 0
3 0.55 0
3.5 0.55 0
4 0.55 0
4.5 0.55 0
5 0.55 0
0 0.6 0
0.5 0.6 0
1 0.6 0
1.5 0.6 0
2 0.6 0
2.5 0.6 0
3 0.6 0
3.5 0.6 0
4 0.6 0
4.5 0.6 0
5 0.6 0
0 0.65 0
0.5 0.65 0
1 0.65 0
1.5 0.65 0
2 0.65 0
2.5 0.65 0
3 0.65 0
3.5 0.65 0
4 0.65 0
4.5 0.65 0
5 0.65 0
0 0.7 0
0.5 0.7 0
1 0.7 0
1.5 0.7 0
2 0.7 0
2.5 0.7 0
3 0.7 0
3.5 0.7 0
4 0.7 0
4.5 0.7 0
5 0.7 0
0 0.75 0
0.5 0.75 0
1 0.75 0
1.5 0.75 0
2 0.75 0
2.5 0.75 0
3 0.75 0
3.5 0.75 0
4 0.75 0
4.5 0.75 0
5 0.75 0
0 0.8 0
0.5 0.8 0
1 0.8 0
1.5 0.8 0
2 0.8 0
2.5 0.8 0
3 0.8 0
3.5 0.8 0
4 0.8 0
4.5 0.8 0
5 0.8 0
0 0.85 0
0.5 0.85 0
1 0.85 0
1.5 0.85 0
2 0.85 0
2.5 0.85 0
3 0.85 0
3.5 0.85 0
4 0.85 0
4.5 0.85 0
5 0.85 0
0 0.9 0
0.5 0.9 0
1 0.9 0
1.5 0.9 0
2 0.9 0
2.5 0.9 0
3 0.9 0
3.5 0.9 0
4 0.9 0
4.5 0.9 0
5 0.9 0
0 0.95 0
0.5 0.95 0
1 0.95 0
1.5 0.95 0
2 0.95 0
2.5 0.95 0
3 0.95 0
3.5 0.95 0
4 0.95 0
4.5 0.95 0
5 0.95 0
0 1 0
0.5 1 0
1 1 0
1.5 1 0
2 1 0
2.5 1 0
3 1 0
3.5 1 0
4 1 0
4.5 1 0
5 1 0
0 0 0.1
0.5 0 0.1
1 0 0.1
1.5 0 0.1
2 0 0.1
2.5 0 0.1
3 0 0.1
3.5 0 0.1
4 0 0.1
4.5 0 0.1
5 0 0.1
0 0.05 0.1
0.5 0.05 0.1
1 0.05 0.1
1.5 0.05 0.1
2 0.05 0.1
2.5 0.05 0.1
3 0.05 0.1
3.5 0.05 0.1
4 0.05 0.1
4.5 0.05 0.1
5 0.05 0.1
0 0.1 0.1
0.5 0.1 0.1
1 0.1 0.1
1.5 0.1 0.1
2 0.1 0.1
2.5 0.1 0.1
3 0.1 0.1
3.5 0.1 0.1
4 0.1 0.1
4.5 0.1 0.1
5 0.1 0.1
0 0.15 0.1
0.5 0.15 0.1
1 0.15 0.1
1.5 0.15 0.1
2 0.15 0.1
2.5 0.15 0.1
3 0.15 0.1
3.5 0.15 0.1
4 0.15 0.1
4.5 0.15 0.1
5 0.15 0.1
0 0.2 0.1
0.5 0.2 0.1
1 0.2 0.1
1.5 0.2 0.1
2 0.2 0.1
2.5 0.2 0.1
3 0.2 0.1
3.5 0.2 0.1
4 0.2 0.1
4.5 0.2 0.1
5 0.2 0.1
0 0.25 0.1
0.5 0.25 0.1
1 0.25 0.1
1.5 0.25 0.1
2 0.25 0.1
2.5 0.25 0.1
3 0.25 0.1
3.5 0.25 0.1
4 0.25 0.1
4.5 0.25 0.1
5 0.25 0.1
0 0.3 0.1
0.5 0.3 0.1
1 0.3 0.1
1.5 0.3 0.1
2 0.3 0.1
2.5 0.3 0.1
3 0.3 0.1
3.5 0.3 0.1
4 0.3 0.1
4.5 0.3 0.1
5 0.3 0.1
0 0.35 0.1
0.5 0.35 0.1
1 0.35 0.1
1.5 0.35 0.1
2 0.35 0.1
2.5 0.35 0.1
3 0.35 0.1
3.5 0.35 0.1
4 0.35 0.1
4.5 0.35 0.1
5 0.35 0.1
0 0.4 0.1
0.5 0.4 0.1
1 0.4 0.1
1.5 0.4 0.1
2 0.4 0.1
2.5 0.4 0.1
3 0.4 0.1
3.5 0.4 0.1
4 0.4 0.1
4.5 0.4 0.1
5 0.4 0.1
0 0.45 0.1
0.5 0.45 0.1
1 0.45 0.1
1.5 0.45 0.1
2 0.45 0.1
2.5 0.45 0.1
3 0.45 0.1
3.5 0.45 0.1
4 0.45 0.1
4.5 0.45 0.1
5 0.45 0.1
0 0.5 0.1
0.5 0.5 0.1
1 0.5 0.1
1.5 0.5 0.1
2 0.5 0.1
2.5 0.5 0.1
3 0.5 0.1
3.5 0.5 0.1
4 0.5 0.1
4.5 0.5 0.1
5 0.5 0.1
0 0.55 0.1
0.5 0.55 0.1
1 0.55 0.1
1.5 0.55 0.1
2 0.55 0.1
2.5 0.55 0.1
3 0.55 0.1
3.5 0.55 0.1
4 0.55 0.1
4.5 0.55 0.1
5 0.55 0.1
0 0.6 0.1
0.5 0.6 0.1
1 0.6 0.1
1.5 0.6 0.1
2 0.6 0.1
2.5 0.6 0.1
3 0.6 0.1
3.5 0.6 0.1
4 0.6 0.1
4.5 0.6 0.1
5 0.6 0.1
0 0.65 0.1
0.5 0.65 0.1
1 0.65 0.1
1.5 0.65 0.1
2 0.65 0.1
2.5 0.65 0.1
3 0.65 0.1
3.5 0.65 0.1
4 0.65 0.1
4.5 0.65 0.1
5 0.65 0.1
0 0.7 0.1
0.5 0.7 0.1
1 0.7 0.1
1.5 0.7 0.1
2 0.7 0.1
2.5 0.7 0.1
3 0.7 0.1
3.5 0.7 0.1
4 0.7 0.1
4.5 0.7 0.1
5 0.7 0.1
0 0.75 0.1
0.5 0.75 0.1
1 0.75 0.1
1.5 0.75 0.1
2 0.75 0.1
2.5 0.75 0.1
3 0.75 0.1
3.5 0.75 0.1
4 0.75 0.1
4.5 0.75 0.1
5 0.75 0.1
0 0.8 0.1
0.5 0.8 0.1
1 0.8 0.1
1.5 0.8 0.1
2 0.8 0.1
2.5 0.8 0.1
3 0.8 0.1
3.5 0.8 0.1
4 0.8 0.1
4.5 0.8 0.1
5 0.8 0.1
0 0.85 0.1
0.5 0.85 0.1
1 0.85 0.1
1.5 0.85 0.1
2 0.85 0.1
2.5 0.85 0.1
3 0.85 0.1
3.5 0.85 0.1
4 0.85 0.1
4.5 0.85 0.1
5 0.85 0.1
0 0.9 0.1
0.5 0.9 0.1
1 0.9 0.1
1.5 0.9 0.1
2 0.9 0.1
2.5 0.9 0.1
3 0.9 0.1
3.5 0.9 0.1
4 0.9 0.1
4.5 0.9 0.1
5 0.9 0.1
0 0.95 0.1
0.5 0.95 0.1
1 0.95 0.1
1.5 0.95 0.1
2 0.95 0.1
2.5 0.95 0.1
3 0.95 0.1
3.5 0.95 0.1
4 0.95 0.1
4.5 0.95 0.1
5 0.95 0.1
0 1 0.1
0.5 1 0.1
1 1 0.1
1.5 1 0.1
2 1 0.1
2.5 1 0.1
3 1 0.1
3.5 1 0.1
4 1 0.1
4.5 1 0.1
5 1 0.1
0 0 0.2
0.5 0 0.2
1 0 0.2
1.5 0 0.2
2 0 0.2
2.5 0 0.2
3 0 0.2
3.5 0 0.2
4 0 0.2
4.5 0 0.2
5 0 0.2
0 0.05 0.2
0.5 0.05 0.2
1 0.05 0.2
1.5 0.05 0.2
2 0.05 0.2
2.5 0.05 0.2
3 0.05 0.2
3.5 0.05 0.2
4 0.05 0.2
4.5 0.05 0.2
5 0.05 0.2
0 0.1 0.2
0.5 0.1 0.2
1 0.1 0.2
1.5 0.1 0.2
2 0.1 0.2
2.5 0.1 0.2
3 0.1 0.2
3.5 0.1 0.2
4 0.1 0.2
4.5 0.1 0.2
5 0.1 0.2
0 0.15 0.2
0.5 0.15 0.2
1 0.15 0.2
1.5 0.15 0.2
2 0.15 0.2
2.5 0.15 0.2
3 0.15 0.2
3.5 0.15 0.2
4 0.15 0.2
4.5 0.15 0.2
5 0.15 0.2
0 0.2 0.2
0.5 0.2 0.2
1 0.2 0.2
1.5 0.2 0.2
2 0.2 0.2
2.5 0.2 0.2
3 0.2 0.2
3.5 0.2 0.2
4 0.2 0.2
4.5 0.2 0.2
5 0.2 0.2
0 0.25 0.2
0.5 0.25 0.2
1 0.25 0.2
1.5 0.25 0.2
2 0.25 0.2
2.5 0.25 0.2
3 0.25 0.2
3.5 0.25 0.2
4 0.25 0.2
4.5 0.25 0.2
5 0.25 0.2
0 0.3 0.2
0.5 0.3 0.2
1 0.3 0.2
1.5 0.3 0.2
2 0.3 0.2
2.5 0.3 0.2
3 0.3 0.2
3.5 0.3 0.2
4 0.3 0.2
4.5 0.3 0.2
5 0.3 0.2
0 0.35 0.2
0.5 0.35 0.2
1 0.35 0.2
1.5 0.35 0.2
2 0.35 0.2
2.5 0.35 0.2
3 0.35 0.2
3.5 0.35 0.2
4 0.35 0.2
4.5 0.35 0.2
5 0.35 0.2
0 0.4 0.2
0.5 0.4 0.2
1 0.4 0.2
1.5 0.4 0.2
2 0.4 0.2
2.5 0.4 0.2
3 0.4 0.2
3.5 0.4 0.2
4 0.4 0.2
4.5 0.4 0.2
5 0.4 0.2
0 0.45 0.2
0.5 0.45 0.2
1 0.45 0.2
1.5 0.45 0.2
2 0.45 0.2
2.5 0.45 0.2
3 0.45 0.2
3.5 0.45 0.2
4 0.45 0.2
4.5 0.45 0.2
5 0.45 0.2
0 0.5 0.2
0.5 0.5 0.2
1 0.5 0.2
1.5 0.5 0.2
2 0.5 0.2
2.5 0.5 0.2
3 0.5 0.2
3.5 0.5 0.2
4 0.5 0.2
4.5 0.5 0.2
5 0.5 0.2
0 0.55 0.2
0.5 0.55 0.2
1 0.55 0.2
1.5 0.55 0.2
2 0.55 0.2
2.5 0.55 0.2
3 0.55 0.2
3.5 0.55 0.2
4 0.55 0.2
4.5 0.55 0.2
5 0.55 0.2
0 0.6 0.2
0.5 0.6 0.2
1 0.6 0.2
1.5 0.6 0.2
2 0.6 0.2
2.5 0.6 0.2
3 0.6 0.2
3.5 0.6 0.2
4 0.6 0.2
4.5 0.6 0.2
5 0.6 0.2
0 0.65 0.2
0.5 0.65 0.2
1 0.65 0.2
1.5 0.65 0.2
2 0.65 0.2
2.5 0.65 0.2
3 0.65 0.2
3.5 0.65 0.2
4 0.65 0.2
4.5 0.65 0.2
5 0.65 0.2
0 0.7 0.2
0.5 0.7 0.2
1 0.7 0.2
1.5 0.7 0.2
2 0.7 0.2
2.5 0.7 0.2
3 0.7 0.2
3.5 0.7 0.2
4 0.7 0.2
4.5 0.7 0.2
5 0.7 0.2
0 0.75 0.2
0.5 0.75 0.2
1 0.75 0.2
1.5 0.75 0.2
2 0.75 0.2
2.5 0.75 0.2
3 0.75 0.2
3.5 0.75 0.2
4 0.75 0.2
4.5 0.75 0.2
5 0.75 0.2
0 0.8 0.2
0.5 0.8 0.2
1 0.8 0.2
1.5 0.8 0.2
2 0.8 0.2
2.5 0.8 0.2
3 0.8 0.2
3.5 0.8 0.2
4 0.8 0.2
4.5 0.8 0.2
5 0.8 0.2
0 0.85 0.2
0.5 0.85 0.2
1 0.85 0.2
1.5 0.85 0.2
2 0.85 0.2
2.5 0.85 0.2
3 0.85 0.2
3.5 0.85 0.2
4 0.85 0.2
4.5 0.85 0.2
5 0.85 0.2
0 0.9 0.2
0.5 0.9 0.2
1 0.9 0.2
1.5 0.9 0.2
2 0.9 0.2
2.5 0.9 0.2
3 0.9 0.2
3.5 0.9 0.2
4 0.9 0.2
4.5 0.9 0.2
5 0.9 0.2
0 0.95 0.2
0.5 0.95 0.2
1 0.95 0.2
1.5 0.95 0.2
2 0.95 0.2
2.5 0.95 0.2
3 0.95 0.2
3.5 0.95 0.2
4 0.95 0.2
4.5 0.95 0.2
5 0.95 0.2
0 1 0.2
0.5 1 0.2
1 1 0.2
1.5 1 0.2
2 1 0.2
2.5 1 0.2
3 1 0.2
3.5 1 0.2
4 1 0.2
4.5 1 0.2
5 1 0.2
0 0 0.3
0.5 0 0.3
1 0 0.3
1.5 0 0.3
2 0 0.3
2.5 0 0.3
3 0 0.3
3.5 0 0.3
4 0 0.3
4.5 0 0.3
5 0 0.3
0 0.05 0.3
0.5 0.05 0.3
1 0.05 0.3
1.5 0.05 0.3
2 0.05 0.3
2.5 0.05 0.3
3 0.05 0.3
3.5 0.05 0.3
4 0.05 0.3
4.5 0.05 0.3
5 0.05 0.3
0 0.1 0.3
0.5 0.1 0.3
1 0.1 0.3
1.5 0.1 0.3
2 0.1 0.3
2.5 0.1 0.3
3 0.1 0.3
3.5 0.1 0.3
4 0.1 0.3
4.5 0.1 0.3
5 0.1 0.3
0 0.15 0.3
0.5 0.15 0.3
1 0.15 0.3
1.5 0.15 0.3
2 0.15 0.3
2.5 0.15 0.3
3 0.15 0.3
3.5 0.15 0.3
4 0.15 0.3
4.5 0.15 0.3
5 0.15 0.3
0 0.2 0.3
0.5 0.2 0.3
1 0.2 0.3
1.5 0.2 0.3
2 0.2 0.3
2.5 0.2 0.3
3 0.2 0.3
3.5 0.2 0.3
4 0.2 0.3
4.5 0.2 0.3
5 0.2 0.3
0 0.25 0.3
0.5 0.25 0.3
1 0.25 0.3
1.5 0.25 0.3
2 0.25 0.3
2.5 0.25 0.3
3 0.25 0.3
3.5 0.25 0.3
4 0.25 0.3
4.5 0.25 0.3
5 0.25 0.3
0 0.3 0.3
0.5 0.3 0.3
1 0.3 0.3
1.5 0.3 0.3
2 0.3 0.3
2.5 0.3 0.3
3 0.3 0.3
3.5 0.3 0.3
4 0.3 0.3
4.5 0.3 0.3
5 0.3 0.3
0 0.35 0.3
0.5 0.35 0.3
1 0.35 0.3
1.5 0.35 0.3
2 0.35 0.3
2.5 0.35 0.3
3 0.35 0.3
3.5 0.35 0.3
4 0.35 0.3
4.5 0.35 0.3
5 0.35 0.3
0 0.4 0.3
0.5 0.4 0.3
1 0.4 0.3
1.5 0.4 0.3
2 0.4 0.3
2.5 0.4 0.3
3 0.4 0.3
3.5 0.4 0.3
4 0.4 0.3
4.5 0.4 0.3
5 0.4 0.3
0 0.45 0.3
0.5 0.45 0.3
1 0.45 0.3
1.5 0.45 0.3
2 0.45 0.3
2.5 0.45 0.3
3 0.45 0.3
3.5 0.45 0.3
4 0.45 0.3
4.5 0.45 0.3
5 0.45 0.3
0 0.5 0.3
0.5 0.5 0.3
1 0.5 0.3
1.5 0.5 0.3
2 0.5 0.3
2.5 0.5 0.3
3 0.5 0.3
3.5 0.5 0.3
4 0.5 0.3
4.5 0.5 0.3
5 0.5 0.3
0 0.55 0.3
0.5 0.55 0.3
1 0.55 0.3
1.5 0.55 0.3
2 0.55 0.3
2.5 0.55 0.3
3 0.55 0.3
3.5 0.55 0.3
4 0.55 0.3
4.5 0.55 0.3
5 0.55 0.3
0 0.6 0.3
0.5 0.6 0.3
1 0.6 0.3
1.5 0.6 0.3
2 0.6 0.3
2.5 0.6 0.3
3 0.6 0.3
3.5 0.6 0.3
4 0.6 0.3
4.5 0.6 0.3
5 0.6 0.3
0 0.65 0.3
0.5 0.65 0.3
1 0.65 0.3
1.5 0.65 0.3
2 0.65 0.3
2.5 0.65 0.3
3 0.65 0.3
3.5 0.65 0.3
4 0.65 0.3
4.5 0.65 0.3
5 0.65 0.3
0 0.7 0.3
0.5 0.7 0.3
1 0.7 0.3
1.5 0.7 0.3
2 0.7 0.3
2.5 0.7 0.3
3 0.7 0.3
3.5 0.7 0.3
4 0.7 0.3
4.5 0.7 0.3
5 0.7 0.3
0 0.75 0.3
0.5 0.75 0.3
1 0.75 0.3
1.5 0.75 0.3
2 0.75 0.3
2.5 0.75 0.3
3 0.75 0.3
3.5 0.75 0.3
4 0.75 0.3
4.5 0.75 0.3
5 0.75 0.3
0 0.8 0.3
0.5 0.8 0.3
1 0.8 0.3
1.5 0.8 0.3
2 0.8 0.3
2.5 0.8 0.3
3 0.8 0.3
3.5 0.8 0.3
4 0.8 0.3
4.5 0.8 0.3
5 0.8 0.3
0 0.85 0.3
0.5 0.85 0.3
1 0.85 0.3
1.5 0.85 0.3
2 0.85 0.3
2.5 0.85 0.3
3 0.85 0.3
3.5 0.85 0.3
4 0.85 0.3
4.5 0.85 0.3
5 0.85 0.3
0 0.9 0.3
0.5 0.9 0.3
1 0.9 0.3
1.5 0.9 0.3
2 0.9 0.3
2.5 0.9 0.3
3 0.9 0.3
3.5 0.9 0.3
4 0.9 0.3
4.5 0.9 0.3
5 0.9 0.3
0 0.95 0.3
0.5 0.95 0.3
1 0.95 0.3
1.5 0.95 0.3
2 0.95 0.3
2.5 0.95 0.3
3 0.95 0.3
3.5 0.95 0.3
4 0.95 0.3
4.5 0.95 0.3
5 0.95 0.3
0 1 0.3
0.5 1 0.3
1 1 0.3
1.5 1 0.3
2 1 0.3
2.5 1 0.3
3 1 0.3
3.5 1 0.3
4 1 0.3
4.5 1 0.3
5 1 0.3
0 0 0.4
[...]
CELL_DATA 2000
SCALARS pressure float 1
LOOKUP_TABLE default
0
0
0.866181
0.936818
0.766113
0.614838
0.469148
0.324935
0.180413
0.023611
0
0
0.863139
0.929933
0.765501
0.61471
0.469118
0.32493
0.180406
0.0255878
0
0
0.831286
0.925915
0.764556
0.614507
0.469071
0.324924
0.180467
0.0276274
0
0
0.817566
0.916789
0.763348
0.614243
0.469007
0.324915
0.180569
0.0293801
1.29393
1.42892
0.820277
0.907979
0.761898
0.613929
0.468932
0.324905
0.180684
0.0308007
1.29191
1.42839
0.83718
0.899949
0.760323
0.613578
0.468846
0.324893
0.180798
0.0319266
1.2862
1.42573
0.859066
0.893514
0.758724
0.613202
0.468751
0.324878
0.180898
0.0327902
1.27751
1.42063
0.886286
0.888806
0.757181
0.612812
0.46865
0.324859
0.180977
0.0334166
1.2683
1.41369
0.913575
0.885658
0.75575
0.612416
0.468545
0.324837
0.18103
0.0338239
1.26028
1.40607
0.938664
0.883686
0.754456
0.612025
0.468438
0.324812
0.181054
0.0340239
1.25403
1.39853
0.961059
0.882572
0.753297
0.611644
0.468331
0.324783
0.181046
0.0340226
1.2499
1.39154
0.980612
0.882056
0.752267
0.611279
0.468226
0.324752
0.181008
0.0338199
1.24827
1.3854
0.997326
0.881923
0.751355
0.610934
0.468124
0.324719
0.180941
0.0334101
1.24918
1.38022
1.01129
0.881993
0.750548
0.610614
0.468028
0.324685
0.180848
0.0327813
1.25253
1.37605
1.02263
0.882123
0.749831
0.610322
0.467939
0.324652
0.180736
0.0319154
1.25815
1.37284
1.03149
0.882198
0.749193
0.610058
0.467859
0.32462
0.180611
0.0307875
1.26558
1.3705
1.03802
0.88213
0.748623
0.609827
0.467789
0.324592
0.180487
0.0293652
1.2732
1.36886
1.04239
0.881869
0.748116
0.60963
0.467731
0.324569
0.180377
0.0276109
1.27839
1.36797
1.04481
0.881442
0.747692
0.609477
0.467687
0.324552
0.18031
0.0255702
1.28028
1.36782
1.04519
0.880898
0.747385
0.609377
0.467659
0.324543
0.180313
0.0235927
0
0
0.875344
0.935104
0.766183
0.614816
0.469141
0.324947
0.180581
0.0274883
0
0
0.870325
0.92873
0.765272
0.614649
0.469105
0.324938
0.18052
0.0306372
0
0
0.83935
0.924722
0.764271
0.614432
0.469054
0.32493
0.180631
0.0329613
0
0
0.843538
0.918105
0.762995
0.614166
0.468991
0.324922
0.180762
0.034734
1.28071
1.42566
0.798135
0.908427
0.761539
0.613859
0.468917
0.324914
0.180893
0.0361703
1.2782
1.44254
0.806861
0.89816
0.759968
0.613518
0.468834
0.324903
0.181016
0.0373089
1.27356
1.43988
0.837441
0.890993
0.758406
0.613155
0.468742
0.324889
0.181122
0.0381823
1.2674
1.43
0.870057
0.886742
0.756939
0.612777
0.468644
0.324872
0.181204
0.0388155
1.26051
1.41905
0.901453
0.884127
0.755589
0.612395
0.468542
0.324851
0.181259
0.0392272
1.25387
1.4081
0.930236
0.88259
0.754363
0.612017
0.468438
0.324826
0.181284
0.0394294
1.24871
1.39786
0.955345
0.881836
0.753262
0.611648
0.468334
0.324798
0.181277
0.0394281
1.24522
1.38895
0.976827
0.881606
0.752282
0.611295
0.468232
0.324767
0.181238
0.0392234
1.24342
1.38174
0.994942
0.881695
0.751412
0.610962
0.468133
0.324735
0.181169
0.0388093
1.24334
1.37629
1.00993
0.881937
0.750641
0.610652
0.46804
0.324701
0.181073
0.0381737
1.24533
1.37242
1.02198
0.882199
0.749955
0.610369
0.467953
0.324667
0.180955
0.0372981
1.24942
1.36969
1.0313
0.882376
0.749343
0.610113
0.467875
0.324635
0.180822
0.0361575
1.2545
1.36762
1.03806
0.882391
0.748794
0.609887
0.467806
0.324606
0.180681
0.0347195
1.25973
1.36597
1.04246
0.882188
0.748303
0.609694
0.467748
0.324583
0.180542
0.0329453
1.26421
1.36524
1.04479
0.881721
0.747856
0.609532
0.467702
0.324566
0.180425
0.0306201
1.26738
1.36647
1.04505
0.880994
0.74747
0.609408
0.467668
0.324558
0.180482
0.0274703
0
0
0.886071
0.936333
0.766394
0.6148
0.469133
0.324967
0.180865
0.0305885
0
0
0.880445
0.930725
0.765435
0.614621
0.469095
0.324959
0.180816
0.0339768
0
0
0.853981
0.927637
0.764439
0.614396
0.469042
0.324952
0.180951
0.0364488
0
0
0.860145
0.92244
0.76322
0.614133
0.46898
0.324946
0.181102
0.0383003
1.26669
1.4163
0.792156
0.913076
0.761808
0.61383
0.468907
0.324939
0.181248
0.039784
1.26414
1.45044
0.776175
0.901051
0.760217
0.613492
0.468825
0.32493
0.181381
0.0409538
1.26249
1.45969
0.802483
0.891087
0.758547
0.613132
0.468735
0.324918
0.181494
0.0418475
1.26418
1.45044
0.844925
0.884873
0.756946
0.612759
0.46864
0.324902
0.181582
0.0424938
1.26788
1.43198
0.88427
0.881831
0.755517
0.612383
0.46854
0.324882
0.18164
0.0429133
1.27158
1.4124
0.917854
0.880611
0.754275
0.612012
0.468439
0.324858
0.181666
0.0431191
1.27397
1.39549
0.946735
0.88031
0.753192
0.611651
0.468338
0.324831
0.181659
0.0431179
1.27412
1.38241
0.971253
0.8805
0.752242
0.611307
0.468238
0.324801
0.181619
0.0429096
1.27216
1.37318
0.991719
0.880942
0.751406
0.610983
0.468142
0.324768
0.181547
0.0424878
1.26808
1.36752
1.0085
0.881474
0.750668
0.610681
0.468051
0.324734
0.181447
0.0418392
1.26208
1.36493
1.02189
0.881973
0.750013
0.610405
0.467966
0.3247
0.181322
0.0409434
1.25546
1.36448
1.03197
0.882344
0.74943
0.610156
0.46789
0.324667
0.181178
0.0397717
1.25001
1.36466
1.03888
0.882503
0.748908
0.609936
0.467822
0.324638
0.181022
0.0382863
1.24792
1.36447
1.04308
0.882374
0.748434
0.609746
0.467765
0.324612
0.180864
0.0364333
1.24992
1.36449
1.04525
0.88191
0.747981
0.609579
0.467717
0.324594
0.180723
0.03396
1.25335
1.36633
1.04551
0.881146
0.747572
0.609448
0.467682
0.324584
0.180768
0.0305708
0
0
0.891955
0.938175
0.766631
0.614798
0.469129
0.324989
0.181118
0.0325565
0
0
0.886771
0.932849
0.765674
0.614617
0.46909
0.324982
0.181074
0.0359958
0
0
0.860711
0.930348
0.764705
0.614392
0.469037
0.324976
0.181217
0.0385166
0
0
0.863899
0.925795
0.76354
0.614132
0.468976
0.324971
0.181377
0.0404062
1.25945
1.42073
0.791838
0.916693
0.762182
0.613835
0.468904
0.324966
0.181532
0.0419185
1.25797
1.45877
0.763957
0.904266
0.760615
0.613504
0.468823
0.324957
0.181671
0.0431092
1.25996
1.47327
0.775235
0.892723
0.758892
0.613146
0.468734
0.324946
0.181789
0.0440181
1.26972
1.46619
0.813945
0.884516
0.757163
0.61277
0.46864
0.324931
0.18188
0.0446748
1.28613
1.44392
0.861645
0.880264
0.755587
0.61239
0.468542
0.324912
0.18194
0.0451007
1.30398
1.41663
0.903903
0.878714
0.754237
0.612016
0.468442
0.324889
0.181968
0.0453096
1.31748
1.39119
0.938022
0.878517
0.753095
0.611654
0.468342
0.324862
0.181961
0.0453084
1.32338
1.37144
0.966048
0.878966
0.752125
0.611311
0.468244
0.324832
0.18192
0.0450971
1.32135
1.35916
0.989342
0.879718
0.75129
0.610988
0.468149
0.324799
0.181846
0.0446689
1.31123
1.35407
1.00811
0.880586
0.75057
0.61069
0.468059
0.324765
0.181743
0.0440099
1.29367
1.35422
1.02238
0.881416
0.749954
0.610419
0.467975
0.324731
0.181613
0.043099
1.27256
1.35702
1.0326
0.88206
0.749417
0.610177
0.4679
0.324697
0.181463
0.0419064
1.25451
1.3604
1.03948
0.882401
0.748931
0.609961
0.467833
0.324667
0.181299
0.0403924
1.24469
1.36286
1.04363
0.882368
0.748476
0.609773
0.467776
0.32464
0.181131
0.0385013
1.24336
1.36424
1.04574
0.881945
0.748031
0.609606
0.467727
0.324621
0.180982
0.0359793
1.24585
1.36664
1.04603
0.881197
0.747623
0.609474
0.467692
0.32461
0.181021
0.0325391
0
0
0.893772
0.939283
0.766782
0.6148
0.469127
0.325003
0.18126
0.0335017
0
0
0.888463
0.934067
0.76583
0.614619
0.469088
0.324996
0.181218
0.0369534
0
0
0.86179
0.931811
0.764877
0.614395
0.469035
0.32499
0.181364
0.0394906
0
0
0.863825
0.927523
0.763738
0.614138
0.468974
0.324986
0.181528
0.0413954
1.25693
1.42564
0.790543
0.918536
0.762406
0.613843
0.468903
0.324981
0.181685
0.0429201
1.25625
1.46477
0.760376
0.906002
0.760858
0.613515
0.468823
0.324974
0.181828
0.0441207
1.26108
1.48016
0.766798
0.894131
0.759134
0.61316
0.468735
0.324963
0.181949
0.0450369
1.27655
1.47327
0.798665
0.885198
0.757368
0.612787
0.468641
0.324948
0.182041
0.0456989
1.30074
1.44965
0.843571
0.879848
0.755705
0.612404
0.468544
0.32493
0.182103
0.0461282
1.3272
1.41879
0.890259
0.877492
0.754244
0.612022
0.468444
0.324907
0.18213
0.0463389
1.34847
1.38879
0.931349
0.877083
0.753014
0.611654
0.468344
0.32488
0.182124
0.0463377
1.35849
1.36477
0.964245
0.8777
0.751995
0.611305
0.468246
0.32485
0.182082
0.0461247
1.35624
1.35018
0.989455
0.878772
0.751159
0.610983
0.468152
0.324817
0.182008
0.045693
1.34164
1.3452
1.00848
0.879954
0.750474
0.610689
0.468063
0.324783
0.181902
0.0450289
1.31615
1.34693
1.02265
0.881029
0.749896
0.610423
0.46798
0.324748
0.18177
0.0441106
1.28648
1.35207
1.03289
0.881842
0.749389
0.610184
0.467905
0.324715
0.181617
0.0429081
1.26078
1.35769
1.03979
0.882292
0.748925
0.609971
0.467838
0.324684
0.18145
0.0413817
1.24539
1.36182
1.04393
0.882321
0.748483
0.609784
0.467781
0.324657
0.181278
0.0394755
1.24139
1.36414
1.04602
0.88193
0.748045
0.609618
0.467733
0.324637
0.181126
0.0369371
1.24315
1.36692
1.04635
0.881197
0.747639
0.609486
0.467697
0.324626
0.181164
0.0334844
0
0
0.893772
0.939283
0.766782
0.6148
0.469127
0.325003
0.18126
0.0335017
0
0
0.888463
0.934067
0.76583
0.614619
0.469088
0.324996
0.181218
0.0369534
0
0
0.86179
0.931811
0.764877
0.614395
0.469035
0.32499
0.181364
0.0394906
0
0
0.863825
0.927523
0.763738
0.614138
0.468974
0.324986
0.181528
0.0413954
1.25693
1.42564
0.790543
0.918536
0.762406
0.613843
0.468903
0.324981
0.181685
0.0429201
1.25625
1.46477
0.760376
0.906002
0.760858
0.613515
0.468823
0.324974
0.181828
0.0441207
1.26108
1.48016
0.766798
0.894131
0.759134
0.61316
0.468735
0.324963
0.181949
0.0450369
1.27655
1.47327
0.798665
0.885198
0.757368
0.612787
0.468641
0.324948
0.182041
0.0456989
1.30074
1.44965
0.843571
0.879848
0.755705
0.612404
0.468544
0.32493
0.182103
0.0461282
1.3272
1.41879
0.890259
0.877492
0.754244
0.612022
0.468444
0.324907
0.18213
0.0463389
1.34847
1.38879
0.931349
0.877083
0.753014
0.611654
0.468344
0.32488
0.182124
0.0463377
1.35849
1.36477
0.964245
0.8777
0.751995
0.611305
0.468246
0.32485
0.182082
0.0461247
1.35624
1.35018
0.989455
0.878772
0.751159
0.610983
0.468152
0.324817
0.182008
0.045693
1.34164
1.3452
1.00848
0.879954
0.750474
0.610689
0.468063
0.324783
0.181902
0.0450289
1.31615
1.34693
1.02265
0.881029
0.749896
0.610423
0.46798
0.324748
0.18177
0.0441106
1.28648
1.35207
1.03289
0.881842
0.749389
0.610184
0.467905
0.324715
0.181617
0.0429081
1.26078
1.35769
1.03979
0.882292
0.748925
0.609971
0.467838
0.324684
0.18145
0.0413817
1.24539
1.36182
1.04393
0.882321
0.748483
0.609784
0.467781
0.324657
0.181278
0.0394755
1.24139
1.36414
1.04602
0.88193
0.748045
0.609618
0.467733
0.324637
0.181126
0.0369371
1.24315
1.36692
1.04635
0.881197
0.747639
0.609486
0.467697
0.324626
0.181164
0.0334844
0
0
0.891955
0.938175
0.766631
0.614798
0.469129
0.324989
0.181118
0.0325565
0
0
0.886771
0.932849
0.765674
0.614617
0.46909
0.324982
0.181074
0.0359958
0
0
0.860711
0.930348
0.764705
0.614392
0.469037
0.324976
0.181217
0.0385166
0
0
0.863899
0.925795
0.76354
0.614132
0.468976
0.324971
0.181377
0.0404062
1.25945
1.42073
0.791838
0.916693
0.762182
0.613835
0.468904
0.324966
0.181532
0.0419185
1.25797
1.45877
0.763957
0.904266
0.760615
0.613504
0.468823
0.324957
0.181671
0.0431092
1.25996
1.47327
0.775235
0.892723
0.758892
0.613146
0.468734
0.324946
0.181789
0.0440181
1.26972
1.46619
0.813945
0.884516
0.757163
0.61277
0.46864
0.324931
0.18188
0.0446748
1.28613
1.44392
0.861645
0.880264
0.755587
0.61239
0.468542
0.324912
0.18194
0.0451007
1.30398
1.41663
0.903903
0.878714
0.754237
0.612016
0.468442
0.324889
0.181968
0.0453096
1.31748
1.39119
0.938022
0.878517
0.753095
0.611654
0.468342
0.324862
0.181961
0.0453084
1.32338
1.37144
0.966048
0.878966
0.752125
0.611311
0.468244
0.324832
0.18192
0.0450971
1.32135
1.35916
0.989342
0.879718
0.75129
0.610988
0.468149
0.324799
0.181846
0.0446689
1.31123
1.35407
1.00811
0.880586
0.75057
0.61069
0.468059
0.324765
0.181743
0.0440099
1.29367
1.35422
1.02238
0.881416
0.749954
0.610419
0.467975
0.324731
0.181613
0.043099
1.27256
1.35702
1.0326
0.88206
0.749417
0.610177
0.4679
0.324697
0.181463
0.0419064
1.25451
1.3604
1.03948
0.882401
0.748931
0.609961
0.467833
0.324667
0.181299
0.0403924
1.24469
1.36286
1.04363
0.882368
0.748476
0.609773
0.467776
0.32464
0.181131
0.0385013
1.24336
1.36424
1.04574
0.881945
0.748031
0.609606
0.467727
0.324621
0.180982
0.0359793
1.24585
1.36664
1.04603
0.881197
0.747623
0.609474
0.467692
0.32461
0.181021
0.0325391
0
0
0.886071
0.936333
0.766394
0.6148
0.469133
0.324967
0.180865
0.0305885
0
0
0.880445
0.930725
0.765435
0.614621
0.469095
0.324959
0.180816
0.0339768
0
0
0.853981
0.927637
0.764439
0.614396
0.469042
0.324952
0.180951
0.0364488
0
0
0.860145
0.92244
0.76322
0.614133
0.46898
0.324946
0.181102
0.0383003
1.26669
1.4163
0.792156
0.913076
0.761808
0.61383
0.468907
0.324939
0.181248
0.039784
1.26414
1.45044
0.776175
0.901051
0.760217
0.613492
0.468825
0.32493
0.181381
0.0409538
1.26249
1.45969
0.802483
0.891087
0.758547
0.613132
0.468735
0.324918
0.181494
0.0418475
1.26418
1.45044
0.844925
0.884873
0.756946
0.612759
0.46864
0.324902
0.181582
0.0424938
1.26788
1.43198
0.88427
0.881831
0.755517
0.612383
0.46854
0.324882
0.18164
0.0429133
1.27158
1.4124
0.917854
0.880611
0.754275
0.612012
0.468439
0.324858
0.181666
0.0431191
1.27397
1.39549
0.946735
0.88031
0.753192
0.611651
0.468338
0.324831
0.181659
0.0431179
1.27412
1.38241
0.971253
0.8805
0.752242
0.611307
0.468238
0.324801
0.181619
0.0429096
1.27216
1.37318
0.991719
0.880942
0.751406
0.610983
0.468142
0.324768
0.181547
0.0424878
1.26808
1.36752
1.0085
0.881474
0.750668
0.610681
0.468051
0.324734
0.181447
0.0418392
1.26208
1.36493
1.02189
0.881973
0.750013
0.610405
0.467966
0.3247
0.181322
0.0409434
1.25546
1.36448
1.03197
0.882344
0.74943
0.610156
0.46789
0.324667
0.181178
0.0397717
1.25001
1.36466
1.03888
0.882503
0.748908
0.609936
0.467822
0.324638
0.181022
0.0382863
1.24792
1.36447
1.04308
0.882374
0.748434
0.609746
0.467765
0.324612
0.180864
0.0364333
1.24992
1.36449
1.04525
0.88191
0.747981
0.609579
0.467717
0.324594
0.180723
0.03396
1.25335
1.36633
1.04551
0.881146
0.747572
0.609448
0.467682
0.324584
0.180768
0.0305708
0
0
0.875344
0.935104
0.766183
0.614816
0.469141
0.324947
0.180581
0.0274883
0
0
0.870325
0.92873
0.765272
0.614649
0.469105
0.324938
0.18052
0.0306372
0
0
0.83935
0.924722
0.764271
0.614432
0.469054
0.32493
0.180631
0.0329613
0
0
0.843538
0.918105
0.762995
0.614166
0.468991
0.324922
0.180762
0.034734
1.28071
1.42566
0.798135
0.908427
0.761539
0.613859
0.468917
0.324914
0.180893
0.0361703
1.2782
1.44254
0.806861
0.89816
0.759968
0.613518
0.468834
0.324903
0.181016
0.0373089
1.27356
1.43988
0.837441
0.890993
0.758406
0.613155
0.468742
0.324889
0.181122
0.0381823
1.2674
1.43
0.870057
0.886742
0.756939
0.612777
0.468644
0.324872
0.181204
0.0388155
1.26051
1.41905
0.901453
0.884127
0.755589
0.612395
0.468542
0.324851
0.181259
0.0392272
1.25387
1.4081
0.930236
0.88259
0.754363
0.612017
0.468438
0.324826
0.181284
0.0394294
1.24871
1.39786
0.955345
0.881836
0.753262
0.611648
0.468334
0.324798
0.181277
0.0394281
1.24522
1.38895
0.976827
0.881606
0.752282
0.611295
0.468232
0.324767
0.181238
0.0392234
1.24342
1.38174
0.994942
0.881695
0.751412
0.610962
0.468133
0.324735
0.181169
0.0388093
1.24334
1.37629
1.00993
0.881937
0.750641
0.610652
0.46804
0.324701
0.181073
0.0381737
1.24533
1.37242
1.02198
0.882199
0.749955
0.610369
0.467953
0.324667
0.180955
0.0372981
1.24942
1.36969
1.0313
0.882376
0.749343
0.610113
0.467875
0.324635
0.180822
0.0361575
1.2545
1.36762
1.03806
0.882391
0.748794
0.609887
0.467806
0.324606
0.180681
0.0347195
1.25973
1.36597
1.04246
0.882188
0.748303
0.609694
0.467748
0.324583
0.180542
0.0329453
1.26421
1.36524
1.04479
0.881721
0.747856
0.609532
0.467702
0.324566
0.180425
0.0306201
1.26738
1.36647
1.04505
0.880994
0.74747
0.609408
0.467668
0.324558
0.180482
0.0274703
0
0
0.866181
0.936818
0.766113
0.614838
0.469148
0.324935
0.180413
0.023611
0
0
0.863139
0.929933
0.765501
0.61471
0.469118
0.32493
0.180406
0.0255878
0
0
0.831286
0.925915
0.764556
0.614507
0.469071
0.324924
0.180467
0.0276274
0
0
0.817566
0.916789
0.763348
0.614243
0.469007
0.324915
0.180569
0.0293801
1.29393
1.42892
0.820277
0.907979
0.761898
0.613929
0.468932
0.324905
0.180684
0.0308007
1.29191
1.42839
0.83718
0.899949
0.760323
0.613578
0.468846
0.324893
0.180798
0.0319266
1.2862
1.42573
0.859066
0.893514
0.758724
0.613202
0.468751
0.324878
0.180898
0.0327902
1.27751
1.42063
0.886286
0.888806
0.757181
0.612812
0.46865
0.324859
0.180977
0.0334166
1.2683
1.41369
0.913575
0.885658
0.75575
0.612416
0.468545
0.324837
0.18103
0.0338239
1.26028
1.40607
0.938664
0.883686
0.754456
0.612025
0.468438
0.324812
0.181054
0.0340239
1.25403
1.39853
0.961059
0.882572
0.753297
0.611644
0.468331
0.324783
0.181046
0.0340226
1.2499
1.39154
0.980612
0.882056
0.752267
0.611279
0.468226
0.324752
0.181008
0.0338199
1.24827
1.3854
0.997326
0.881923
0.751355
0.610934
0.468124
0.324719
0.180941
0.0334101
1.24918
1.38022
1.01129
0.881993
0.750548
0.610614
0.468028
0.324685
0.180848
0.0327813
1.25253
1.37605
1.02263
0.882123
0.749831
0.610322
0.467939
0.324652
0.180736
0.0319154
1.25815
1.37284
1.03149
0.882198
0.749193
0.610058
0.467859
0.32462
0.180611
0.0307875
1.26558
1.3705
1.03802
0.88213
0.748623
0.609827
0.467789
0.324592
0.180487
0.0293652
1.2732
1.36886
1.04239
0.881869
0.748116
0.60963
0.467731
0.324569
0.180377
0.0276109
1.27839
1.36797
1.04481
0.881442
0.747692
0.609477
0.467687
0.324552
0.18031
0.0255702
1.28028
1.36782
1.04519
0.880898
0.747385
0.609377
0.467659
0.324543
0.180313
0.0235927

VECTORS velocity float
0 0 0
0 0 0
0.696381 -0.0293091 -0.00365281
0.637722 -0.00202236 0.00106219
0.657761 -0.000581496 0.000137742
0.66407 -0.00013389 3.12116e-05
0.665513 -2.96507e-05 7.15042e-06
0.665875 -8.49348e-06 -3.23882e-06
0.666223 1.55256e-06 -5.24111e-05
0.693612 -0.00186273 -0.00170304
0 0 0
0 0 0
-0.0876658 -0.0868247 -0.0030159
0.660504 -0.0110857 0.000859713
0.735731 -0.00218121 0.000213365
0.746565 -0.00046392 4.84932e-05
0.748653 -0.000101545 1.07477e-05
0.74915 -2.85206e-05 -2.51562e-06
0.750009 -4.42814e-05 -5.15028e-05
0.76227 -0.00378448 -0.00218789
0 0 0
0 0 0
0.721232 -0.147894 -0.00155953
0.706038 -0.0217796 0.000691951
0.747206 -0.00410277 0.000186872
0.757038 -0.000857405 4.81492e-05
0.759149 -0.000187198 1.10551e-05
0.759656 -5.15212e-05 -2.6968e-06
0.760451 -0.000128045 -6.04575e-05
0.769671 -0.00356227 -0.00227328
0 0 0
0 0 0
-0.0736555 -0.211714 -0.000270635
0.680735 -0.0312933 -3.42228e-05
0.748186 -0.00594822 0.000149794
0.758519 -0.00124329 4.48729e-05
0.760538 -0.000271606 1.04529e-05
0.761014 -7.3265e-05 -3.11235e-06
0.761653 -0.000182326 -6.82938e-05
0.770668 -0.00297994 -0.00230106
0.373844 -0.0155614 -0.0332969
0.73248 0.00862566 -0.0246163
0.722376 -0.243732 0.0114548
0.709598 -0.0411447 0.0012043
0.750477 -0.00768704 0.000194527
0.758934 -0.00159933 4.24553e-05
0.760717 -0.000349347 9.40394e-06
0.761142 -9.21107e-05 -3.62686e-06
0.761645 -0.000204127 -7.22098e-05
0.770885 -0.00240642 -0.0023128
0.459373 -0.0416104 -0.0418428
0.900281 0.0181941 -0.0272491
0.875357 -0.237963 0.0166872
0.735687 -0.0474661 0.00224763
0.752917 -0.00911188 0.000224264
0.7593 -0.00190812 3.794e-05
0.760797 -0.000417449 7.97027e-06
0.761158 -0.000107268 -4.20939e-06
0.761551 -0.000201383 -7.45758e-05
0.771011 -0.00188909 -0.00232046
0.507631 -0.0565357 -0.0475629
0.926622 0.0176086 -0.0243031
0.906016 -0.221672 0.0125612
0.749997 -0.050915 0.00195887
0.755056 -0.0102005 0.000186571
0.759694 -0.00216092 2.98385e-05
0.76088 -0.000473919 6.20364e-06
0.761169 -0.000118342 -4.81215e-06
0.761474 -0.000180326 -7.6045e-05
0.771106 -0.00142094 -0.00232557
0.54691 -0.0604541 -0.0519736
0.926476 0.0142281 -0.0212741
0.908259 -0.201522 0.0072417
0.760031 -0.0521767 0.00131099
0.757176 -0.0109533 0.000131857
0.760125 -0.00235145 2.07958e-05
0.760972 -0.000517209 4.2641e-06
0.761183 -0.000125196 -5.40761e-06
0.761419 -0.000145955 -7.69685e-05
0.771175 -0.000990387 -0.00232888
0.578837 -0.0555032 -0.0554957
0.922648 0.0109716 -0.0193207
0.906102 -0.180024 0.00382212
0.768714 -0.0516884 0.000774795
0.759358 -0.0113681 7.74884e-05
0.760585 -0.00247515 1.16502e-05
0.76107 -0.000546182 2.23908e-06
0.7612 -0.000127886 -5.97798e-06
0.761385 -0.000102401 -7.75391e-05
0.771222 -0.00058612 -0.00233087
0.60349 -0.0436549 -0.058381
0.918812 0.00892703 -0.0182367
0.903484 -0.158765 0.00168053
0.776318 -0.0498307 0.000399366