# vtk DataFile Version 2.0
TestTestTest
ASCII

DATASET STRUCTURED_GRID
DIMENSIONS 11 21 11
POINTS 2541 float
0 0 0
0.5 0 0
1 0 0
1.5 0 0
2 0 0
2.5 0 0
3 0 0
3.5 0 0
4 0 0
4.5 0 0
5 0 0
0 0.05 0
0.5 0.05 0
1 0.05 0
1.5 0.05 0
2 0.05 0
2.5 0.05 0
3 0.05 0
3.5 0.05 0
4 0.05 0
4.5 0.05 0
5 0.05 0
0 0.1 0
0.5 0.1 0
1 0.1 0
1.5 0.1 0
2 0.1 0
2.5 0.1 0
3 0.1 0
3.5 0.1 0
4 0.1 0
4.5 0.1 0
5 0.1 0
0 0.15 0
0.5 0.15 0
1 0.15 0
1.5 0.15 0
2 0.15 0
2.5 0.15 0
3 0.15 0
3.5 0.15 0
4 0.15 0
4.5 0.15 0
5 0.15 0
0 0.2 0
0.5 0.2 0
1 0.2 0
1.5 0.2 0
2 0.2 0
2.5 0.2 0
3 0.2 0
3.5 0.2 0
4 0.2 0
4.5 0.2 0
5 0.2 0
0 0.25 0
0.5 0.25 0
1 0.25 0
1.5 0.25 0
2 0.25 0
2.5 0.25 0
3 0.25 0
3.5 0.25 0
4 0.25 0
4.5 0.25 0
5 0.25 0
0 0.3 0
0.5 0.3 0
1 0.3 0
1.5 0.3 0
2 0.3 0
2.5 0.3 0
3 0.3 0
3.5 0.3 0
4 0.3 0
4.5 0.3 0
5 0.3 0
0 0.35 0
0.5 0.35 0
1 0.35 0
1.5 0.35 0
2 0.35 0
2.5 0.35 0
3 0.35 0
3.5 0.35 0
4 0.35 0
4.5 0.35 0
5 0.35 0
0 0.4 0
0.5 0.4 0
1 0.4 0
1.5 0.4 0
2 0.4 0
2.5 0.4 0
3 0.4 0
3.5 0.4 0
4 0.4 0
4.5 0.4 0
5 0.4 0
0 0.45 0
0.5 0.45 0
1 0.45 0
1.5 0.45 0
2 0.45 0
2.5 0.45 0
3 0.45 0
3.5 0.45 0
4 0.45 0
4.5 0.45 0
5 0.45 0
0 0.5 0
0.5 0.5 0
1 0.5 0
1.5 0.5 0
2 0.5 0
2.5 0.5 0
3 0.5 0
3.5 0.5 0
4 0.5 0
4.5 0.5 0
5 0.5 0
0 0.55 0
0.5 0.55 0
1 0.55 0
1.5 0.55 0
2 0.55 0
2.5 0.55 0
3 0.55 0
3.5 0.55 0
4 0.55 0
4.5 0.55 0
5 0.55 0
0 0.6 0
0.5 0.6 0
1 0.6 0
1.5 0.6 0
2 0.6 0
2.5 0.6 0
3 0.6 0
3.5 0.6 0
4 0.6 0
4.5 0.6 0
5 0.6 0
0 0.65 0
0.5 0.65 0
1 0.65 0
1.5 0.65 0
2 0.65 0
2.5 0.65 0
3 0.65 0
3.5 0.65 0
4 0.65 0
4.5 0.65 0
5 0.65 0
0 0.7 0
0.5 0.7 0
1 0.7 0
1.5 0.7 0
2 0.7 0
2.5 0.7 0
3 0.7 0
3.5 0.7 0
4 0.7 0
4.5 0.7 0
5 0.7 0
0 0.75 0
0.5 0.75 0
1 0.75 0
1.5 0.75 0
2 0.75 0
2.5 0.75 0
3 0.75 0
3.5 0.75 0
4 0.75 0
4.5 0.75 0
5 0.75 0
0 0.8 0
0.5 0.8 0
1 0.8 0
1.5 0.8 0
2 0.8 0
2.5 0.8 0
3 0.8 0
3.5 0.8 0
4 0.8 0
4.5 0.8 0
5 0.8 0
0 0.85 0
0.5 0.85 0
1 0.85 0
1.5 0.85 0
2 0.85 0
2.5 0.85 0
3 0.85 0
3.5 0.85 0
4 0.85 0
4.5 0.85 0
5 0.85 0
0 0.9 0
0.5 0.9 0
1 0.9 0
1.5 0.9 0
2 0.9 0
2.5 0.9 0
3 0.9 0
3.5 0.9 0
4 0.9 0
4.5 0.9 0
5 0.9 0
0 0.95 0
0.5 0.95 0
1 0.95 0
1.5 0.95 0
2 0.95 0
2.5 0.95 0
3 0.95 0
3.5 0.95 0
4 0.95 0
4.5 0.95 0
5 0.95 0
0 1 0
0.5 1 0
1 1 0
1.5 1 0
2 1 0
2.5 1 0
3 1 0
3.5 1 0
4 1 0
4.5 1 0
5 1 0
0 0 0.1
0.5 0 0.1
1 0 0.1
1.5 0 0.1
2 0 0.1
2.5 0 0.1
3 0 0.1
3.5 0 0.1
4 0 0.1
4.5 0 0.1
5 0 0.1
0 0.05 0.1
0.5 0.05 0.1
1 0.05 0.1
1.5 0.05 0.1
2 0.05 0.1
2.5 0.05 0.1
3 0.05 0.1
3.5 0.05 0.1
4 0.05 0.1
4.5 0.05 0.1
5 0.05 0.1
0 0.1 0.1
0.5 0.1 0.1
1 0.1 0.1
1.5 0.1 0.1
2 0.1 0.1
2.5 0.1 0.1
3 0.1 0.1
3.5 0.1 0.1
4 0.1 0.1
4.5 0.1 0.1
5 0.1 0.1
0 0.15 0.1
0.5 0.15 0.1
1 0.15 0.1
1.5 0.15 0.1
2 0.15 0.1
2.5 0.15 0.1
3 0.15 0.1
3.5 0.15 0.1
4 0.15 0.1
4.5 0.15 0.1
5 0.15 0.1
0 0.2 0.1
0.5 0.2 0.1
1 0.2 0.1
1.5 0.2 0.1
2 0.2 0.1
2.5 0.2 0.1
3 0.2 0.1
3.5 0.2 0.1
4 0.2 0.1
4.5 0.2 0.1
5 0.2 0.1
0 0.25 0.1
0.5 0.25 0.1
1 0.25 0.1
1.5 0.25 0.1
2 0.25 0.1
2.5 0.25 0.1
3 0.25 0.1
3.5 0.25 0.1
4 0.25 0.1
4.5 0.25 0.1
5 0.25 0.1
0 0.3 0.1
0.5 0.3 0.1
1 0.3 0.1
1.5 0.3 0.1
2 0.3 0.1
2.5 0.3 0.1
3 0.3 0.1
3.5 0.3 0.1
4 0.3 0.1
4.5 0.3 0.1
5 0.3 0.1
0 0.35 0.1
0.5 0.35 0.1
1 0.35 0.1
1.5 0.35 0.1
2 0.35 0.1
2.5 0.35 0.1
3 0.35 0.1
3.5 0.35 0.1
4 0.35 0.1
4.5 0.35 0.1
5 0.35 0.1
0 0.4 0.1
0.5 0.4 0.1
1 0.4 0.1
1.5 0.4 0.1
2 0.4 0.1
2.5 0.4 0.1
3 0.4 0.1
3.5 0.4 0.1
4 0.4 0.1
4.5 0.4 0.1
5 0.4 0.1
0 0.45 0.1
0.5 0.45 0.1
1 0.45 0.1
1.5 0.45 0.1
2 0.45 0.1
2.5 0.45 0.1
3 0.45 0.1
3.5 0.45 0.1
4 0.45 0.1
4.5 0.45 0.1
5 0.45 0.1
0 0.5 0.1
0.5 0.5 0.1
1 0.5 0.1
1.5 0.5 0.1
2 0.5 0.1
2.5 0.5 0.1
3 0.5 0.1
3.5 0.5 0.1
4 0.5 0.1
4.5 0.5 0.1
5 0.5 0.1
0 0.55 0.1
0.5 0.55 0.1
1 0.55 0.1
1.5 0.55 0.1
2 0.55 0.1
2.5 0.55 0.1
3 0.55 0.1
3.5 0.55 0.1
4 0.55 0.1
4.5 0.55 0.1
5 0.55 0.1
0 0.6 0.1
0.5 0.6 0.1
1 0.6 0.1
1.5 0.6 0.1
2 0.6 0.1
2.5 0.6 0.1
3 0.6 0.1
3.5 0.6 0.1
4 0.6 0.1
4.5 0.6 0.1
5 0.6 0.1
0 0.65 0.1
0.5 0.65 0.1
1 0.65 0.1
1.5 0.65 0.1
2 0.65 0.1
2.5 0.65 0.1
3 0.65 0.1
3.5 0.65 0.1
4 0.65 0.1
4.5 0.65 0.1
5 0.65 0.1
0 0.7 0.1
0.5 0.7 0.1
1 0.7 0.1
1.5 0.7 0.1
2 0.7 0.1
2.5 0.7 0.1
3 0.7 0.1
3.5 0.7 0.1
4 0.7 0.1
4.5 0.7 0.1
5 0.7 0.1
0 0.75 0.1
0.5 0.75 0.1
1 0.75 0.1
1.5 0.75 0.1
2 0.75 0.1
2.5 0.75 0.1
3 0.75 0.1
3.5 0.75 0.1
4 0.75 0.1
4.5 0.75 0.1
5 0.75 0.1
0 0.8 0.1
0.5 0.8 0.1
1 0.8 0.1
1.5 0.8 0.1
2 0.8 0.1
2.5 0.8 0.1
3 0.8 0.1
3.5 0.8 0.1
4 0.8 0.1
4.5 0.8 0.1
5 0.8 0.1
0 0.85 0.1
0.5 0.85 0.1
1 0.85 0.1
1.5 0.85 0.1
2 0.85 0.1
2.5 0.85 0.1
3 0.85 0.1
3.5 0.85 0.1
4 0.85 0.1
4.5 0.85 0.1
5 0.85 0.1
0 0.9 0.1
0.5 0.9 0.1
1 0.9 0.1
1.5 0.9 0.1
2 0.9 0.1
2.5 0.9 0.1
3 0.9 0.1
3.5 0.9 0.1
4 0.9 0.1
4.5 0.9 0.1
5 0.9 0.1
0 0.95 0.1
0.5 0.95 0.1
1 0.95 0.1
1.5 0.95 0.1
2 0.95 0.1
2.5 0.95 0.1
3 0.95 0.1
3.5 0.95 0.1
4 0.95 0.1
4.5 0.95 0.1
5 0.95 0.1
0 1 0.1
0.5 1 0.1
1 1 0.1
1.5 1 0.1
2 1 0.1
2.5 1 0.1
3 1 0.1
3.5 1 0.1
4 1 0.1
4.5 1 0.1
5 1 0.1
0 0 0.2
0.5 0 0.2
1 0 0.2
1.5 0 0.2
2 0 0.2
2.5 0 0.2
3 0 0.2
3.5 0 0.2
4 0 0.2
4.5 0 0.2
5 0 0.2
0 0.05 0.2
0.5 0.05 0.2
1 0.05 0.2
1.5 0.05 0.2
2 0.05 0.2
2.5 0.05 0.2
3 0.05 0.2
3.5 0.05 0.2
4 0.05 0.2
4.5 0.05 0.2
5 0.05 0.2
0 0.1 0.2
0.5 0.1 0.2
1 0.1 0.2
1.5 0.1 0.2
2 0.1 0.2
2.5 0.1 0.2
3 0.1 0.2
3.5 0.1 0.2
4 0.1 0.2
4.5 0.1 0.2
5 0.1 0.2
0 0.15 0.2
0.5 0.15 0.2
1 0.15 0.2
1.5 0.15 0.2
2 0.15 0.2
2.5 0.15 0.2
3 0.15 0.2
3.5 0.15 0.2
4 0.15 0.2
4.5 0.15 0.2
5 0.15 0.2
0 0.2 0.2
0.5 0.2 0.2
1 0.2 0.2
1.5 0.2 0.2
2 0.2 0.2
2.5 0.2 0.2
3 0.2 0.2
3.5 0.2 0.2
4 0.2 0.2
4.5 0.2 0.2
5 0.2 0.2
0 0.25 0.2
0.5 0.25 0.2
1 0.25 0.2
1.5 0.25 0.2
2 0.25 0.2
2.5 0.25 0.2
3 0.25 0.2
3.5 0.25 0.2
4 0.25 0.2
4.5 0.25 0.2
5 0.25 0.2
0 0.3 0.2
0.5 0.3 0.2
1 0.3 0.2
1.5 0.3 0.2
2 0.3 0.2
2.5 0.3 0.2
3 0.3 0.2
3.5 0.3 0.2
4 0.3 0.2
4.5 0.3 0.2
5 0.3 0.2
0 0.35 0.2
0.5 0.35 0.2
1 0.35 0.2
1.5 0.35 0.2
2 0.35 0.2
2.5 0.35 0.2
3 0.35 0.2
3.5 0.35 0.2
4 0.35 0.2
4.5 0.35 0.2
5 0.35 0.2
0 0.4 0.2
0.5 0.4 0.2
1 0.4 0.2
1.5 0.4 0.2
2 0.4 0.2
2.5 0.4 0.2
3 0.4 0.2
3.5 0.4 0.2
4 0.4 0.2
4.5 0.4 0.2
5 0.4 0.2
0 0.45 0.2
0.5 0.45 0.2
1 0.45 0.2
1.5 0.45 0.2
2 0.45 0.2
2.5 0.45 0.2
3 0.45 0.2
3.5 0.45 0.2
4 0.45 0.2
4.5 0.45 0.2
5 0.45 0.2
0 0.5 0.2
0.5 0.5 0.2
1 0.5 0.2
1.5 0.5 0.2
2 0.5 0.2
2.5 0.5 0.2
3 0.5 0.2
3.5 0.5 0.2
4 0.5 0.2
4.5 0.5 0.2
5 0.5 0.2
0 0.55 0.2
0.5 0.55 0.2
1 0.55 0.2
1.5 0.55 0.2
2 0.55 0.2
2.5 0.55 0.2
3 0.55 0.2
3.5 0.55 0.2
4 0.55 0.2
4.5 0.55 0.2
5 0.55 0.2
0 0.6 0.2
0.5 0.6 0.2
1 0.6 0.2
1.5 0.6 0.2
2 0.6 0.2
2.5 0.6 0.2
3 0.6 0.2
3.5 0.6 0.2
4 0.6 0.2
4.5 0.6 0.2
5 0.6 0.2
0 0.65 0.2
0.5 0.65 0.2
1 0.65 0.2
1.5 0.65 0.2
2 0.65 0.2
2.5 0.65 0.2
3 0.65 0.2
3.5 0.65 0.2
4 0.65 0.2
4.5 0.65 0.2
5 0.65 0.2
0 0.7 0.2
0.5 0.7 0.2
1 0.7 0.2
1.5 0.7 0.2
2 0.7 0.2
2.5 0.7 0.2
3 0.7 0.2
3.5 0.7 0.2
4 0.7 0.2
4.5 0.7 0.2
5 0.7 0.2
0 0.75 0.2
0.5 0.75 0.2
1 0.75 0.2
1.5 0.75 0.2
2 0.75 0.2
2.5 0.75 0.2
3 0.75 0.2
3.5 0.75 0.2
4 0.75 0.2
4.5 0.75 0.2
5 0.75 0.2
0 0.8 0.2
0.5 0.8 0.2
1 0.8 0.2
1.5 0.8 0.2
2 0.8 0.2
2.5 0.8 0.2
3 0.8 0.2
3.5 0.8 0.2
4 0.8 0.2
4.5 0.8 0.2
5 0.8 0.2
0 0.85 0.2
0.5 0.85 0.2
1 0.85 0.2
1.5 0.85 0.2
2 0.85 0.2
2.5 0.85 0.2
3 0.85 0.2
3.5 0.85 0.2
4 0.85 0.2
4.5 0.85 0.2
5 0.85 0.2
0 0.9 0.2
0.5 0.9 0.2
1 0.9 0.2
1.5 0.9 0.2
2 0.9 0.2
2.5 0.9 0.2
3 0.9 0.2
3.5 0.9 0.2
4 0.9 0.2
4.5 0.9 0.2
5 0.9 0.2
0 0.95 0.2
0.5 0.95 0.2
1 0.95 0.2
1.5 0.95 0.2
2 0.95 0.2
2.5 0.95 0.2
3 0.95 0.2
3.5 0.95 0.2
4 0.95 0.2
4.5 0.95 0.2
5 0.95 0.2
0 1 0.2
0.5 1 0.2
1 1 0.2
1.5 1 0.2
2 1 0.2
2.5 1 0.2
3 1 0.2
3.5 1 0.2
4 1 0.2
4.5 1 0.2
5 1 0.2
0 0 0.3
0.5 0 0.3
1 0 0.3
1.5 0 0.3
2 0 0.3
2.5 0 0.3
3 0 0.3
3.5 0 0.3
4 0 0.3
4.5 0 0.3
5 0 0.3
0 0.05 0.3
0.5 0.05 0.3
1 0.05 0.3
1.5 0.05 0.3
2 0.05 0.3
2.5 0.05 0.3
3 0.05 0.3
3.5 0.05 0.3
4 0.05 0.3
4.5 0.05 0.3
5 0.05 0.3
0 0.1 0.3
0.5 0.1 0.3
1 0.1 0.3
1.5 0.1 0.3
2 0.1 0.3
2.5 0.1 0.3
3 0.1 0.3
3.5 0.1 0.3
4 0.1 0.3
4.5 0.1 0.3
5 0.1 0.3
0 0.15 0.3
0.5 0.15 0.3
1 0.15 0.3
1.5 0.15 0.3
2 0.15 0.3
2.5 0.15 0.3
3 0.15 0.3
3.5 0.15 0.3
4 0.15 0.3
4.5 0.15 0.3
5 0.15 0.3
0 0.2 0.3
0.5 0.2 0.3
1 0.2 0.3
1.5 0.2 0.3
2 0.2 0.3
2.5 0.2 0.3
3 0.2 0.3
3.5 0.2 0.3
4 0.2 0.3
4.5 0.2 0.3
5 0.2 0.3
0 0.25 0.3
0.5 0.25 0.3
1 0.25 0.3
1.5 0.25 0.3
2 0.25 0.3
2.5 0.25 0.3
3 0.25 0.3
3.5 0.25 0.3
4 0.25 0.3
4.5 0.25 0.3
5 0.25 0.3
0 0.3 0.3
0.5 0.3 0.3
1 0.3 0.3
1.5 0.3 0.3
2 0.3 0.3
2.5 0.3 0.3
3 0.3 0.3
3.5 0.3 0.3
4 0.3 0.3
4.5 0.3 0.3
5 0.3 0.3
0 0.35 0.3
0.5 0.35 0.3
1 0.35 0.3
1.5 0.35 0.3
2 0.35 0.3
2.5 0.35 0.3
3 0.35 0.3
3.5 0.35 0.3
4 0.35 0.3
4.5 0.35 0.3
5 0.35 0.3
0 0.4 0.3
0.5 0.4 0.3
1 0.4 0.3
1.5 0.4 0.3
2 0.4 0.3
2.5 0.4 0.3
3 0.4 0.3
3.5 0.4 0.3
4 0.4 0.3
4.5 0.4 0.3
5 0.4 0.3
0 0.45 0.3
0.5 0.45 0.3
1 0.45 0.3
1.5 0.45 0.3
2 0.45 0.3
2.5 0.45 0.3
3 0.45 0.3
3.5 0.45 0.3
4 0.45 0.3
4.5 0.45 0.3
5 0.45 0.3
0 0.5 0.3
0.5 0.5 0.3
1 0.5 0.3
1.5 0.5 0.3
2 0.5 0.3
2.5 0.5 0.3
3 0.5 0.3
3.5 0.5 0.3
4 0.5 0.3
4.5 0.5 0.3
5 0.5 0.3
0 0.55 0.3
0.5 0.55 0.3
1 0.55 0.3
1.5 0.55 0.3
2 0.55 0.3
2.5 0.55 0.3
3 0.55 0.3
3.5 0.55 0.3
4 0.55 0.3
4.5 0.55 0.3
5 0.55 0.3
0 0.6 0.3
0.5 0.6 0.3
1 0.6 0.3
1.5 0.6 0.3
2 0.6 0.3
2.5 0.6 0.3
3 0.6 0.3
3.5 0.6 0.3
4 0.6 0.3
4.5 0.6 0.3
5 0.6 0.3
0 0.65 0.3
0.5 0.65 0.3
1 0.65 0.3
1.5 0.65 0.3
2 0.65 0.3
2.5 0.65 0.3
3 0.65 0.3
3.5 0.65 0.3
4 0.65 0.3
4.5 0.65 0.3
5 0.65 0.3
0 0.7 0.3
0.5 0.7 0.3
1 0.7 0.3
1.5 0.7 0.3
2 0.7 0.3
2.5 0.7 0.3
3 0.7 0.3
3.5 0.7 0.3
4 0.7 0.3
4.5 0.7 0.3
5 0.7 0.3
0 0.75 0.3
0.5 0.75 0.3
1 0.75 0.3
1.5 0.75 0.3
2 0.75 0.3
2.5 0.75 0.3
3 0.75 0.3
3.5 0.75 0.3
4 0.75 0.3
4.5 0.75 0.3
5 0.75 0.3
0 0.8 0.3
0.5 0.8 0.3
1 0.8 0.3
1.5 0.8 0.3
2 0.8 0.3
2.5 0.8 0.3
3 0.8 0.3
3.5 0.8 0.3
4 0.8 0.3
4.5 0.8 0.3
5 0.8 0.3
0 0.85 0.3
0.5 0.85 0.3
1 0.85 0.3
1.5 0.85 0.3
2 0.85 0.3
2.5 0.85 0.3
3 0.85 0.3
3.5 0.85 0.3
4 0.85 0.3
4.5 0.85 0.3
5 0.85 0.3
0 0.9 0.3
0.5 0.9 0.3
1 0.9 0.3
1.5 0.9 0.3
2 0.9 0.3
2.5 0.9 0.3
3 0.9 0.3
3.5 0.9 0.3
4 0.9 0.3
4.5 0.9 0.3
5 0.9 0.3
0 0.95 0.3
0.5 0.95 0.3
1 0.95 0.3
1.5 0.95 0.3
2 0.95 0.3
2.5 0.95 0.3
3 0.95 0.3
3.5 0.95 0.3
4 0.95 0.3
4.5 0.95 0.3
5 0.95 0.3
0 1 0.3
0.5 1 0.3
1 1 0.3
1.5 1 0.3
2 1 0.3
2.5 1 0.3
3 1 0.3
3.5 1 0.3
4 1 0.3
4.5 1 0.3
5 1 0.3
0 0 0.4
[...]
CELL_DATA 2000
SCALARS pressure float 1
LOOKUP_TABLE default
0
0
0.855044
0.924247
0.755697
0.606249
0.462541
0.320356
0.177887
0.0234629
0
0
0.851915
0.917501
0.755093
0.606122
0.462511
0.320351
0.177876
0.0253393
0
0
0.821049
0.913587
0.754153
0.605918
0.462463
0.320344
0.177934
0.0273221
0
0
0.807326
0.904638
0.752935
0.60565
0.462399
0.320335
0.178033
0.0290398
1.25436
1.39129
0.809429
0.89593
0.751461
0.605329
0.462322
0.320325
0.178147
0.030432
1.25258
1.39154
0.824936
0.887817
0.749848
0.60497
0.462234
0.320312
0.178259
0.0315346
1.24719
1.39
0.845435
0.881191
0.748201
0.604583
0.462138
0.320297
0.178357
0.03238
1.23888
1.38612
0.871446
0.876248
0.746601
0.604181
0.462035
0.320278
0.178436
0.0329929
1.23008
1.3802
0.89787
0.872878
0.745113
0.603774
0.461927
0.320255
0.178488
0.0333914
1.22241
1.37339
0.922272
0.870703
0.743761
0.60337
0.461818
0.320229
0.178511
0.0335871
1.21647
1.36649
0.944113
0.869405
0.742547
0.602977
0.461708
0.3202
0.178504
0.0335857
1.21257
1.36002
0.963228
0.868725
0.741466
0.602599
0.4616
0.320168
0.178466
0.0333875
1.2111
1.35431
0.979602
0.868448
0.740506
0.602243
0.461496
0.320135
0.178399
0.0329865
1.21209
1.3495
0.993307
0.868393
0.739655
0.601912
0.461398
0.320101
0.178308
0.0323711
1.21543
1.34565
1.00445
0.868416
0.738901
0.60161
0.461307
0.320067
0.178196
0.0315235
1.22097
1.3427
1.01317
0.868401
0.738229
0.601338
0.461225
0.320035
0.178073
0.0304188
1.22825
1.34056
1.01959
0.868261
0.737632
0.601099
0.461154
0.320007
0.17795
0.0290248
1.23569
1.33901
1.02388
0.867948
0.737104
0.600898
0.461094
0.319984
0.177842
0.0273056
1.24069
1.33809
1.02625
0.867498
0.73667
0.600742
0.46105
0.319968
0.177779
0.0253217
1.24241
1.33786
1.02662
0.866953
0.736362
0.600642
0.461022
0.319958
0.177787
0.0234446
0
0
0.864005
0.922877
0.755813
0.606234
0.462535
0.320367
0.178052
0.0272411
0
0
0.858857
0.916577
0.75491
0.606069
0.462499
0.320358
0.177972
0.0302771
0
0
0.828567
0.912624
0.753892
0.605849
0.462447
0.320349
0.17808
0.0325774
0
0
0.832083
0.906127
0.752598
0.605577
0.462384
0.320341
0.178212
0.0343129
1.24173
1.38722
0.788326
0.896538
0.751112
0.605262
0.462308
0.320332
0.178343
0.0357185
1.23951
1.40418
0.795947
0.886201
0.749497
0.604913
0.462223
0.320321
0.178465
0.0368328
1.23529
1.40316
0.824377
0.878735
0.747881
0.604539
0.462129
0.320307
0.17857
0.0376873
1.22966
1.39479
0.855407
0.874156
0.746354
0.604149
0.462029
0.320289
0.178652
0.0383069
1.22338
1.38488
0.885569
0.871276
0.744945
0.603754
0.461924
0.320267
0.178706
0.0387096
1.21734
1.37466
0.913514
0.869511
0.743659
0.603362
0.461817
0.320242
0.17873
0.0389073
1.21267
1.36493
0.938039
0.868564
0.742501
0.60298
0.461711
0.320214
0.178723
0.038906
1.2095
1.35645
0.959086
0.86817
0.741467
0.602614
0.461606
0.320183
0.178684
0.0387058
1.20786
1.34966
0.976886
0.86812
0.740547
0.602268
0.461504
0.320149
0.178616
0.0383006
1.20777
1.34465
0.991649
0.868244
0.739732
0.601947
0.461408
0.320115
0.178521
0.0376787
1.20958
1.34124
1.00356
0.868406
0.739007
0.601653
0.46132
0.320081
0.178404
0.036822
1.21336
1.33898
1.01277
0.868501
0.73836
0.601389
0.461239
0.320049
0.178271
0.0357058
1.21808
1.33732
1.01946
0.868451
0.737783
0.601155
0.461169
0.32002
0.17813
0.0342984
1.22298
1.33598
1.02381
0.8682
0.737272
0.600957
0.46111
0.319997
0.177991
0.0325614
1.22716
1.33537
1.02614
0.86771
0.736812
0.600791
0.461063
0.319981
0.177876
0.03026
1.23009
1.33658
1.02642
0.866997
0.73643
0.600669
0.461031
0.319973
0.177952
0.0272231
0
0
0.87458
0.924411
0.756074
0.606223
0.462528
0.320387
0.178333
0.0303033
0
0
0.868838
0.918847
0.755114
0.606046
0.462489
0.320379
0.178265
0.0335914
0
0
0.842752
0.915776
0.754092
0.605814
0.462436
0.320371
0.1784
0.0360555
0
0
0.848298
0.910664
0.75285
0.605545
0.462372
0.320365
0.178554
0.0378738
1.22817
1.37721
0.782509
0.901364
0.751409
0.605234
0.462298
0.320358
0.178701
0.0393282
1.22602
1.41079
0.7665
0.889289
0.749775
0.604887
0.462214
0.320348
0.178835
0.0404744
1.22491
1.42106
0.790603
0.879079
0.748047
0.604516
0.462122
0.320336
0.178947
0.0413499
1.22719
1.4136
0.830547
0.872455
0.746377
0.604131
0.462024
0.320319
0.179034
0.0419827
1.23152
1.39641
0.868294
0.868988
0.744875
0.603741
0.461922
0.320299
0.179092
0.0423934
1.23585
1.37738
0.900796
0.867461
0.743565
0.603356
0.461818
0.320275
0.179117
0.0425949
1.23882
1.36077
0.928957
0.866949
0.742422
0.602982
0.461714
0.320247
0.17911
0.0425937
1.23938
1.34798
0.953032
0.86698
0.741418
0.602624
0.461612
0.320216
0.179071
0.0423897
1.23759
1.33914
0.973232
0.867292
0.740532
0.602288
0.461513
0.320183
0.178999
0.0419767
1.23342
1.33397
0.989871
0.867718
0.73975
0.601975
0.46142
0.320149
0.1789
0.0413415
1.22717
1.33203
1.0032
0.868132
0.739057
0.601688
0.461333
0.320114
0.178775
0.040464
1.22024
1.33233
1.01325
0.868432
0.73844
0.601431
0.461254
0.320081
0.178631
0.0393158
1.21443
1.33331
1.02014
0.868532
0.737892
0.601204
0.461185
0.320051
0.178474
0.0378597
1.21196
1.33382
1.02431
0.868356
0.737396
0.601008
0.461127
0.320026
0.178312
0.0360399
1.21352
1.33428
1.0265
0.867867
0.736928
0.600836
0.461078
0.320008
0.178171
0.0335746
1.21655
1.33624
1.02682
0.86712
0.736522
0.600706
0.461043
0.319999
0.178235
0.0302856
0
0
0.880497
0.926442
0.756347
0.606225
0.462524
0.320409
0.178584
0.0322507
0
0
0.875264
0.921156
0.755387
0.606046
0.462485
0.320402
0.178522
0.035593
0
0
0.849663
0.91867
0.754392
0.605814
0.462431
0.320395
0.178667
0.0381089
0
0
0.852406
0.914181
0.753204
0.605548
0.462368
0.320391
0.178831
0.0399671
1.22114
1.3807
0.782516
0.90513
0.751816
0.605243
0.462295
0.320385
0.178987
0.0414511
1.22015
1.41799
0.754805
0.892648
0.750206
0.604902
0.462212
0.320376
0.179127
0.0426191
1.2228
1.4332
0.764135
0.880844
0.748424
0.604533
0.462122
0.320364
0.179245
0.0435101
1.23322
1.42784
0.79978
0.872178
0.746621
0.604144
0.462025
0.320349
0.179336
0.0441538
1.25027
1.40711
0.845116
0.867429
0.744963
0.60375
0.461924
0.320329
0.179396
0.0445711
1.26868
1.38049
0.886246
0.8655
0.743533
0.603361
0.461821
0.320306
0.179423
0.0447757
1.28263
1.35521
0.919745
0.865059
0.742323
0.602985
0.461718
0.320278
0.179416
0.0447745
1.28886
1.33558
0.947362
0.865353
0.741293
0.602628
0.461617
0.320248
0.179375
0.0445675
1.28699
1.32357
0.970469
0.865998
0.740407
0.602293
0.46152
0.320215
0.179302
0.0441479
1.27686
1.31895
0.989199
0.866785
0.739644
0.601983
0.461427
0.32018
0.179198
0.043502
1.25918
1.31982
1.00348
0.867547
0.73899
0.601702
0.461342
0.320145
0.179068
0.0426088
1.23788
1.32355
1.01372
0.868129
0.738422
0.60145
0.461264
0.320111
0.178917
0.0414389
1.21953
1.32803
1.0206
0.868413
0.73791
0.601228
0.461196
0.32008
0.178752
0.0399532
1.20924
1.33154
1.02476
0.868331
0.737433
0.601034
0.461138
0.320054
0.17858
0.0380937
1.20732
1.33364
1.02691
0.867884
0.736972
0.600862
0.461088
0.320034
0.178429
0.0355765
1.20929
1.33626
1.0273
0.867154
0.736567
0.600731
0.461053
0.320024
0.178487
0.0322333
0
0
0.882391
0.927642
0.756517
0.60623
0.462522
0.320423
0.178726
0.0331867
0
0
0.877094
0.922467
0.755562
0.60605
0.462484
0.320416
0.178665
0.0365423
0
0
0.850988
0.92023
0.754582
0.60582
0.46243
0.32041
0.178813
0.0390757
0
0
0.852675
0.916002
0.75342
0.605556
0.462367
0.320406
0.178981
0.0409497
1.21869
1.38505
0.781619
0.907054
0.752059
0.605253
0.462295
0.3204
0.179141
0.0424467
1.21855
1.42336
0.751574
0.894453
0.750467
0.604915
0.462212
0.320392
0.179285
0.0436249
1.22412
1.43931
0.755976
0.882307
0.748682
0.604549
0.462123
0.320381
0.179405
0.0445236
1.2403
1.43405
0.784651
0.872881
0.746839
0.604162
0.462027
0.320366
0.179498
0.0451727
1.26512
1.41212
0.826666
0.866966
0.74509
0.603765
0.461926
0.320347
0.179559
0.0455935
1.29213
1.38212
0.871759
0.864171
0.743545
0.603369
0.461823
0.320324
0.179587
0.0457999
1.3138
1.35235
0.912383
0.863514
0.742239
0.602985
0.461721
0.320297
0.17958
0.0457987
1.32406
1.32838
0.945268
0.864013
0.741158
0.602622
0.46162
0.320266
0.179538
0.0455899
1.32193
1.31391
0.9705
0.865017
0.740271
0.602287
0.461523
0.320233
0.179464
0.0451668
1.30737
1.30927
0.989501
0.866138
0.739542
0.601982
0.461431
0.320198
0.179358
0.0445155
1.28185
1.31169
1.00366
0.867149
0.738927
0.601705
0.461346
0.320163
0.179226
0.0436147
1.25207
1.31786
1.01391
0.867902
0.73839
0.601457
0.461269
0.320129
0.179072
0.0424346
1.22608
1.32473
1.02084
0.868295
0.7379
0.601237
0.461201
0.320097
0.178903
0.040936
1.21019
1.33009
1.025
0.868275
0.737436
0.601045
0.461143
0.32007
0.178727
0.0390605
1.20551
1.33329
1.02715
0.867859
0.736982
0.600873
0.461093
0.32005
0.178573
0.0365259
1.20667
1.33635
1.02758
0.867146
0.73658
0.600742
0.461058
0.32004
0.17863
0.0331694
0
0
0.882391
0.927642
0.756517
0.60623
0.462522
0.320423
0.178726
0.0331867
0
0
0.877094
0.922467
0.755562
0.60605
0.462484
0.320416
0.178665
0.0365423
0
0
0.850988
0.92023
0.754582
0.60582
0.46243
0.32041
0.178813
0.0390757
0
0
0.852675
0.916002
0.75342
0.605556
0.462367
0.320406
0.178981
0.0409497
1.21869
1.38505
0.781619
0.907054
0.752059
0.605253
0.462295
0.3204
0.179141
0.0424467
1.21855
1.42336
0.751574
0.894453
0.750467
0.604915
0.462212
0.320392
0.179285
0.0436249
1.22412
1.43931
0.755976
0.882307
0.748682
0.604549
0.462123
0.320381
0.179405
0.0445236
1.2403
1.43405
0.784651
0.872881
0.746839
0.604162
0.462027
0.320366
0.179498
0.0451727
1.26512
1.41212
0.826666
0.866966
0.74509
0.603765
0.461926
0.320347
0.179559
0.0455935
1.29213
1.38212
0.871759
0.864171
0.743545
0.603369
0.461823
0.320324
0.179587
0.0457999
1.3138
1.35235
0.912383
0.863514
0.742239
0.602985
0.461721
0.320297
0.17958
0.0457987
1.32406
1.32838
0.945268
0.864013
0.741158
0.602622
0.46162
0.320266
0.179538
0.0455899
1.32193
1.31391
0.9705
0.865017
0.740271
0.602287
0.461523
0.320233
0.179464
0.0451668
1.30737
1.30927
0.989501
0.866138
0.739542
0.601982
0.461431
0.320198
0.179358
0.0445155
1.28185
1.31169
1.00366
0.867149
0.738927
0.601705
0.461346
0.320163
0.179226
0.0436147
1.25207
1.31786
1.01391
0.867902
0.73839
0.601457
0.461269
0.320129
0.179072
0.0424346
1.22608
1.32473
1.02084
0.868295
0.7379
0.601237
0.461201
0.320097
0.178903
0.040936
1.21019
1.33009
1.025
0.868275
0.737436
0.601045
0.461143
0.32007
0.178727
0.0390605
1.20551
1.33329
1.02715
0.867859
0.736982
0.600873
0.461093
0.32005
0.178573
0.0365259
1.20667
1.33635
1.02758
0.867146
0.73658
0.600742
0.461058
0.32004
0.17863
0.0331694
0
0
0.880497
0.926442
0.756347
0.606225
0.462524
0.320409
0.178584
0.0322507
0
0
0.875264
0.921156
0.755387
0.606046
0.462485
0.320402
0.178522
0.035593
0
0
0.849663
0.91867
0.754392
0.605814
0.462431
0.320395
0.178667
0.0381089
0
0
0.852406
0.914181
0.753204
0.605548
0.462368
0.320391
0.178831
0.0399671
1.22114
1.3807
0.782516
0.90513
0.751816
0.605243
0.462295
0.320385
0.178987
0.0414511
1.22015
1.41799
0.754805
0.892648
0.750206
0.604902
0.462212
0.320376
0.179127
0.0426191
1.2228
1.4332
0.764135
0.880844
0.748424
0.604533
0.462122
0.320364
0.179245
0.0435101
1.23322
1.42784
0.79978
0.872178
0.746621
0.604144
0.462025
0.320349
0.179336
0.0441538
1.25027
1.40711
0.845116
0.867429
0.744963
0.60375
0.461924
0.320329
0.179396
0.0445711
1.26868
1.38049
0.886246
0.8655
0.743533
0.603361
0.461821
0.320306
0.179423
0.0447757
1.28263
1.35521
0.919745
0.865059
0.742323
0.602985
0.461718
0.320278
0.179416
0.0447745
1.28886
1.33558
0.947362
0.865353
0.741293
0.602628
0.461617
0.320248
0.179375
0.0445675
1.28699
1.32357
0.970469
0.865998
0.740407
0.602293
0.46152
0.320215
0.179302
0.0441479
1.27686
1.31895
0.989199
0.866785
0.739644
0.601983
0.461427
0.32018
0.179198
0.043502
1.25918
1.31982
1.00348
0.867547
0.73899
0.601702
0.461342
0.320145
0.179068
0.0426088
1.23788
1.32355
1.01372
0.868129
0.738422
0.60145
0.461264
0.320111
0.178917
0.0414389
1.21953
1.32803
1.0206
0.868413
0.73791
0.601228
0.461196
0.32008
0.178752
0.0399532
1.20924
1.33154
1.02476
0.868331
0.737433
0.601034
0.461138
0.320054
0.17858
0.0380937
1.20732
1.33364
1.02691
0.867884
0.736972
0.600862
0.461088
0.320034
0.178429
0.0355765
1.20929
1.33626
1.0273
0.867154
0.736567
0.600731
0.461053
0.320024
0.178487
0.0322333
0
0
0.87458
0.924411
0.756074
0.606223
0.462528
0.320387
0.178333
0.0303033
0
0
0.868838
0.918847
0.755114
0.606046
0.462489
0.320379
0.178265
0.0335914
0
0
0.842752
0.915776
0.754092
0.605814
0.462436
0.320371
0.1784
0.0360555
0
0
0.848298
0.910664
0.75285
0.605545
0.462372
0.320365
0.178554
0.0378738
1.22817
1.37721
0.782509
0.901364
0.751409
0.605234
0.462298
0.320358
0.178701
0.0393282
1.22602
1.41079
0.7665
0.889289
0.749775
0.604887
0.462214
0.320348
0.178835
0.0404744
1.22491
1.42106
0.790603
0.879079
0.748047
0.604516
0.462122
0.320336
0.178947
0.0413499
1.22719
1.4136
0.830547
0.872455
0.746377
0.604131
0.462024
0.320319
0.179034
0.0419827
1.23152
1.39641
0.868294
0.868988
0.744875
0.603741
0.461922
0.320299
0.179092
0.0423934
1.23585
1.37738
0.900796
0.867461
0.743565
0.603356
0.461818
0.320275
0.179117
0.0425949
1.23882
1.36077
0.928957
0.866949
0.742422
0.602982
0.461714
0.320247
0.17911
0.0425937
1.23938
1.34798
0.953032
0.86698
0.741418
0.602624
0.461612
0.320216
0.179071
0.0423897
1.23759
1.33914
0.973232
0.867292
0.740532
0.602288
0.461513
0.320183
0.178999
0.0419767
1.23342
1.33397
0.989871
0.867718
0.73975
0.601975
0.46142
0.320149
0.1789
0.0413415
1.22717
1.33203
1.0032
0.868132
0.739057
0.601688
0.461333
0.320114
0.178775
0.040464
1.22024
1.33233
1.01325
0.868432
0.73844
0.601431
0.461254
0.320081
0.178631
0.0393158
1.21443
1.33331
1.02014
0.868532
0.737892
0.601204
0.461185
0.320051
0.178474
0.0378597
1.21196
1.33382
1.02431
0.868356
0.737396
0.601008
0.461127
0.320026
0.178312
0.0360399
1.21352
1.33428
1.0265
0.867867
0.736928
0.600836
0.461078
0.320008
0.178171
0.0335746
1.21655
1.33624
1.02682
0.86712
0.736522
0.600706
0.461043
0.319999
0.178235
0.0302856
0
0
0.864005
0.922877
0.755813
0.606234
0.462535
0.320367
0.178052
0.0272411
0
0
0.858857
0.916577
0.75491
0.606069
0.462499
0.320358
0.177972
0.0302771
0
0
0.828567
0.912624
0.753892
0.605849
0.462447
0.320349
0.17808
0.0325774
0
0
0.832083
0.906127
0.752598
0.605577
0.462384
0.320341
0.178212
0.0343129
1.24173
1.38722
0.788326
0.896538
0.751112
0.605262
0.462308
0.320332
0.178343
0.0357185
1.23951
1.40418
0.795947
0.886201
0.749497
0.604913
0.462223
0.320321
0.178465
0.0368328
1.23529
1.40316
0.824377
0.878735
0.747881
0.604539
0.462129
0.320307
0.17857
0.0376873
1.22966
1.39479
0.855407
0.874156
0.746354
0.604149
0.462029
0.320289
0.178652
0.0383069
1.22338
1.38488
0.885569
0.871276
0.744945
0.603754
0.461924
0.320267
0.178706
0.0387096
1.21734
1.37466
0.913514
0.869511
0.743659
0.603362
0.461817
0.320242
0.17873
0.0389073
1.21267
1.36493
0.938039
0.868564
0.742501
0.60298
0.461711
0.320214
0.178723
0.038906
1.2095
1.35645
0.959086
0.86817
0.741467
0.602614
0.461606
0.320183
0.178684
0.0387058
1.20786
1.34966
0.976886
0.86812
0.740547
0.602268
0.461504
0.320149
0.178616
0.0383006
1.20777
1.34465
0.991649
0.868244
0.739732
0.601947
0.461408
0.320115
0.178521
0.0376787
1.20958
1.34124
1.00356
0.868406
0.739007
0.601653
0.46132
0.320081
0.178404
0.036822
1.21336
1.33898
1.01277
0.868501
0.73836
0.601389
0.461239
0.320049
0.178271
0.0357058
1.21808
1.33732
1.01946
0.868451
0.737783
0.601155
0.461169
0.32002
0.17813
0.0342984
1.22298
1.33598
1.02381
0.8682
0.737272
0.600957
0.46111
0.319997
0.177991
0.0325614
1.22716
1.33537
1.02614
0.86771
0.736812
0.600791
0.461063
0.319981
0.177876
0.03026
1.23009
1.33658
1.02642
0.866997
0.73643
0.600669
0.461031
0.319973
0.177952
0.0272231
0
0
0.855044
0.924247
0.755697
0.606249
0.462541
0.320356
0.177887
0.0234629
0
0
0.851915
0.917501
0.755093
0.606122
0.462511
0.320351
0.177876
0.0253393
0
0
0.821049
0.913587
0.754153
0.605918
0.462463
0.320344
0.177934
0.0273221
0
0
0.807326
0.904638
0.752935
0.60565
0.462399
0.320335
0.178033
0.0290398
1.25436
1.39129
0.809429
0.89593
0.751461
0.605329
0.462322
0.320325
0.178147
0.030432
1.25258
1.39154
0.824936
0.887817
0.749848
0.60497
0.462234
0.320312
0.178259
0.0315346
1.24719
1.39
0.845435
0.881191
0.748201
0.604583
0.462138
0.320297
0.178357
0.03238
1.23888
1.38612
0.871446
0.876248
0.746601
0.604181
0.462035
0.320278
0.178436
0.0329929
1.23008
1.3802
0.89787
0.872878
0.745113
0.603774
0.461927
0.320255
0.178488
0.0333914
1.22241
1.37339
0.922272
0.870703
0.743761
0.60337
0.461818
0.320229
0.178511
0.0335871
1.21647
1.36649
0.944113
0.869405
0.742547
0.602977
0.461708
0.3202
0.178504
0.0335857
1.21257
1.36002
0.963228
0.868725
0.741466
0.602599
0.4616
0.320168
0.178466
0.0333875
1.2111
1.35431
0.979602
0.868448
0.740506
0.602243
0.461496
0.320135
0.178399
0.0329865
1.21209
1.3495
0.993307
0.868393
0.739655
0.601912
0.461398
0.320101
0.178308
0.0323711
1.21543
1.34565
1.00445
0.868416
0.738901
0.60161
0.461307
0.320067
0.178196
0.0315235
1.22097
1.3427
1.01317
0.868401
0.738229
0.601338
0.461225
0.320035
0.178073
0.0304188
1.22825
1.34056
1.01959
0.868261
0.737632
0.601099
0.461154
0.320007
0.17795
0.0290248
1.23569
1.33901
1.02388
0.867948
0.737104
0.600898
0.461094
0.319984
0.177842
0.0273056
1.24069
1.33809
1.02625
0.867498
0.73667
0.600742
0.46105
0.319968
0.177779
0.0253217
1.24241
1.33786
1.02662
0.866953
0.736362
0.600642
0.461022
0.319958
0.177787
0.0234446

VECTORS velocity float
0 0 0
0 0 0
0.681725 -0.0286689 -0.0041862
0.62886 -0.00187238 0.0010399
0.647186 -0.000549757 0.000139199
0.653096 -0.000127215 3.26902e-05
0.654447 -2.80353e-05 7.61085e-06
0.654789 -8.24617e-06 -3.42971e-06
0.655089 6.69547e-06 -5.33896e-05
0.684156 -0.00197267 -0.00182805
0 0 0
0 0 0
-0.0802644 -0.0849643 -0.00347529
0.65384 -0.0108139 0.000845829
0.729412 -0.00212374 0.000226731
0.740204 -0.000449266 5.28542e-05
0.742245 -9.76376e-05 1.18083e-05
0.742729 -2.78985e-05 -2.5501e-06
0.743614 -3.74016e-05 -5.00495e-05
0.757247 -0.00404359 -0.00237848
0 0 0
0 0 0
0.707123 -0.144936 -0.00195308
0.700405 -0.0216001 0.000662445
0.742378 -0.00405912 0.000199181
0.752208 -0.000842064 5.29037e-05
0.754295 -0.000182484 1.22718e-05
0.754794 -5.07591e-05 -2.70985e-06
0.755628 -0.000128698 -6.01437e-05
0.765805 -0.00384857 -0.00248066
0 0 0
0 0 0
-0.0662754 -0.207825 -0.000396724
0.67483 -0.0312588 -9.44623e-05
0.743542 -0.00593158 0.00015831
0.754024 -0.00123076 4.94781e-05
0.756037 -0.0002669 1.16602e-05
0.756509 -7.253e-05 -3.14675e-06
0.757178 -0.000189462 -6.95395e-05
0.76704 -0.00323011 -0.00251277
0.364405 -0.0151328 -0.0322659
0.712163 0.00870353 -0.024483
0.708115 -0.240169 0.0114365
0.703886 -0.0413021 0.00121506
0.745923 -0.00770857 0.000211742
0.754483 -0.00159136 4.7296e-05
0.756262 -0.000344979 1.05286e-05
0.756684 -9.14388e-05 -3.71885e-06
0.757208 -0.000214552 -7.4215e-05
0.767298 -0.0026094 -0.0025253
0.451495 -0.0404102 -0.0409531
0.885235 0.0186219 -0.0279353
0.865846 -0.235736 0.0169148
0.731116 -0.0478174 0.00239019
0.748468 -0.00916636 0.000251136
0.754854 -0.00190462 4.27296e-05
0.756345 -0.000413491 8.95051e-06
0.756704 -0.000106602 -4.37663e-06
0.757109 -0.000212621 -7.70267e-05
0.767437 -0.00204816 -0.0025335
0.50043 -0.0547833 -0.0465411
0.915792 0.0185025 -0.0254059
0.900585 -0.220481 0.0130744
0.745996 -0.0514051 0.00214966
0.750634 -0.0102795 0.000212744
0.755244 -0.00216133 3.37495e-05
0.756427 -0.00047036 6.97359e-06
0.756714 -0.000117596 -5.05948e-06
0.757025 -0.000190571 -7.87638e-05
0.76754 -0.0015403 -0.00253903
0.540044 -0.058434 -0.0507172
0.917184 0.0154422 -0.0224143
0.904082 -0.20103 0.00762486
0.756072 -0.0527533 0.0014637
0.75274 -0.0110507 0.0001517
0.75567 -0.0023551 2.35336e-05
0.756517 -0.000514 4.79681e-06
0.756727 -0.000124283 -5.73303e-06
0.756965 -0.000153939 -7.9849e-05
0.767615 -0.00107334 -0.00254264
0.572252 -0.0535143 -0.0539995
0.913894 0.0123815 -0.0203432
0.902153 -0.179922 0.00400673
0.764721 -0.0523 0.000870513
0.754915 -0.011478 8.99023e-05
0.756127 -0.00248121 1.31937e-05
0.756614 -0.000543241 2.52679e-06
0.756744 -0.000126735 -6.3758e-06
0.756927 -0.000107288 -8.05148e-05
0.767665 -0.000634966 -0.00254483
0.597182 -0.0419668 -0.0566974
0.910361 0.010442 -0.0191401
0.89953 -0.158856 0.0017395
0.772298 -0.0504333 0.000451979
0.757079 -0.0115666 3.61731e-05