# vtk DataFile Version 2.0
TestTestTest
ASCII

DATASET STRUCTURED_GRID
DIMENSIONS 11 21 11
POINTS 2541 float
0 0 0
0.5 0 0
1 0 0
1.5 0 0
2 0 0
2.5 0 0
3 0 0
3.5 0 0
4 0 0
4.5 0 0
5 0 0
0 0.05 0
0.5 0.05 0
1 0.05 0
1.5 0.05 0
2 0.05 0
2.5 0.05 0
3 0.05 0
3.5 0.05 0
4 0.05 0
4.5 0.05 0
5 0.05 0
0 0.1 0
0.5 0.1 0
1 0.1 0
1.5 0.1 0
2 0.1 0
2.5 0.1 0
3 0.1 0
3.5 0.1 0
4 0.1 0
4.5 0.1 0
5 0.1 0
0 0.15 0
0.5 0.15 0
1 0.15 0
1.5 0.15 0
2 0.15 0
2.5 0.15 0
3 0.15 0
3.5 0.15 0
4 0.15 0
4.5 0.15 0
5 0.15 0
0 0.2 0
0.5 0.2 0
1 0.2 0
1.5 0.2 0
2 0.2 0
2.5 0.2 0
3 0.2 0
3.5 0.2 0
4 0.2 0
4.5 0.2 0
5 0.2 0
0 0.25 0
0.5 0.25 0
1 0.25 0
1.5 0.25 0
2 0.25 0
2.5 0.25 0
3 0.25 0
3.5 0.25 0
4 0.25 0
4.5 0.25 0
5 0.25 0
0 0.3 0
0.5 0.3 0
1 0.3 0
1.5 0.3 0
2 0.3 0
2.5 0.3 0
3 0.3 0
3.5 0.3 0
4 0.3 0
4.5 0.3 0
5 0.3 0
0 0.35 0
0.5 0.35 0
1 0.35 0
1.5 0.35 0
2 0.35 0
2.5 0.35 0
3 0.35 0
3.5 0.35 0
4 0.35 0
4.5 0.35 0
5 0.35 0
0 0.4 0
0.5 0.4 0
1 0.4 0
1.5 0.4 0
2 0.4 0
2.5 0.4 0
3 0.4 0
3.5 0.4 0
4 0.4 0
4.5 0.4 0
5 0.4 0
0 0.45 0
0.5 0.45 0
1 0.45 0
1.5 0.45 0
2 0.45 0
2.5 0.45 0
3 0.45 0
3.5 0.45 0
4 0.45 0
4.5 0.45 0
5 0.45 0
0 0.5 0
0.5 0.5 0
1 0.5 0
1.5 0.5 0
2 0.5 0
2.5 0.5 0
3 0.5 0
3.5 0.5 0
4 0.5 0
4.5 0.5 0
5 0.5 0
0 0.55 0
0.5 0.55 0
1 0.55 0
1.5 0.55 0
2 0.55 0
2.5 0.55 0
3 0.55 0
3.5 0.55 0
4 0.55 0
4.5 0.55 0
5 0.55 0
0 0.6 0
0.5 0.6 0
1 0.6 0
1.5 0.6 0
2 0.6 0
2.5 0.6 0
3 0.6 0
3.5 0.6 0
4 0.6 0
4.5 0.6 0
5 0.6 0
0 0.65 0
0.5 0.65 0
1 0.65 0
1.5 0.65 0
2 0.65 0
2.5 0.65 0
3 0.65 0
3.5 0.65 0
4 0.65 0
4.5 0.65 0
5 0.65 0
0 0.7 0
0.5 0.7 0
1 0.7 0
1.5 0.7 0
2 0.7 0
2.5 0.7 0
3 0.7 0
3.5 0.7 0
4 0.7 0
4.5 0.7 0
5 0.7 0
0 0.75 0
0.5 0.75 0
1 0.75 0
1.5 0.75 0
2 0.75 0
2.5 0.75 0
3 0.75 0
3.5 0.75 0
4 0.75 0
4.5 0.75 0
5 0.75 0
0 0.8 0
0.5 0.8 0
1 0.8 0
1.5 0.8 0
2 0.8 0
2.5 0.8 0
3 0.8 0
3.5 0.8 0
4 0.8 0
4.5 0.8 0
5 0.8 0
0 0.85 0
0.5 0.85 0
1 0.85 0
1.5 0.85 0
2 0.85 0
2.5 0.85 0
3 0.85 0
3.5 0.85 0
4 0.85 0
4.5 0.85 0
5 0.85 0
0 0.9 0
0.5 0.9 0
1 0.9 0
1.5 0.9 0
2 0.9 0
2.5 0.9 0
3 0.9 0
3.5 0.9 0
4 0.9 0
4.5 0.9 0
5 0.9 0
0 0.95 0
0.5 0.95 0
1 0.95 0
1.5 0.95 0
2 0.95 0
2.5 0.95 0
3 0.95 0
3.5 0.95 0
4 0.95 0
4.5 0.95 0
5 0.95 0
0 1 0
0.5 1 0
1 1 0
1.5 1 0
2 1 0
2.5 1 0
3 1 0
3.5 1 0
4 1 0
4.5 1 0
5 1 0
0 0 0.1
0.5 0 0.1
1 0 0.1
1.5 0 0.1
2 0 0.1
2.5 0 0.1
3 0 0.1
3.5 0 0.1
4 0 0.1
4.5 0 0.1
5 0 0.1
0 0.05 0.1
0.5 0.05 0.1
1 0.05 0.1
1.5 0.05 0.1
2 0.05 0.1
2.5 0.05 0.1
3 0.05 0.1
3.5 0.05 0.1
4 0.05 0.1
4.5 0.05 0.1
5 0.05 0.1
0 0.1 0.1
0.5 0.1 0.1
1 0.1 0.1
1.5 0.1 0.1
2 0.1 0.1
2.5 0.1 0.1
3 0.1 0.1
3.5 0.1 0.1
4 0.1 0.1
4.5 0.1 0.1
5 0.1 0.1
0 0.15 0.1
0.5 0.15 0.1
1 0.15 0.1
1.5 0.15 0.1
2 0.15 0.1
2.5 0.15 0.1
3 0.15 0.1
3.5 0.15 0.1
4 0.15 0.1
4.5 0.15 0.1
5 0.15 0.1
0 0.2 0.1
0.5 0.2 0.1
1 0.2 0.1
1.5 0.2 0.1
2 0.2 0.1
2.5 0.2 0.1
3 0.2 0.1
3.5 0.2 0.1
4 0.2 0.1
4.5 0.2 0.1
5 0.2 0.1
0 0.25 0.1
0.5 0.25 0.1
1 0.25 0.1
1.5 0.25 0.1
2 0.25 0.1
2.5 0.25 0.1
3 0.25 0.1
3.5 0.25 0.1
4 0.25 0.1
4.5 0.25 0.1
5 0.25 0.1
0 0.3 0.1
0.5 0.3 0.1
1 0.3 0.1
1.5 0.3 0.1
2 0.3 0.1
2.5 0.3 0.1
3 0.3 0.1
3.5 0.3 0.1
4 0.3 0.1
4.5 0.3 0.1
5 0.3 0.1
0 0.35 0.1
0.5 0.35 0.1
1 0.35 0.1
1.5 0.35 0.1
2 0.35 0.1
2.5 0.35 0.1
3 0.35 0.1
3.5 0.35 0.1
4 0.35 0.1
4.5 0.35 0.1
5 0.35 0.1
0 0.4 0.1
0.5 0.4 0.1
1 0.4 0.1
1.5 0.4 0.1
2 0.4 0.1
2.5 0.4 0.1
3 0.4 0.1
3.5 0.4 0.1
4 0.4 0.1
4.5 0.4 0.1
5 0.4 0.1
0 0.45 0.1
0.5 0.45 0.1
1 0.45 0.1
1.5 0.45 0.1
2 0.45 0.1
2.5 0.45 0.1
3 0.45 0.1
3.5 0.45 0.1
4 0.45 0.1
4.5 0.45 0.1
5 0.45 0.1
0 0.5 0.1
0.5 0.5 0.1
1 0.5 0.1
1.5 0.5 0.1
2 0.5 0.1
2.5 0.5 0.1
3 0.5 0.1
3.5 0.5 0.1
4 0.5 0.1
4.5 0.5 0.1
5 0.5 0.1
0 0.55 0.1
0.5 0.55 0.1
1 0.55 0.1
1.5 0.55 0.1
2 0.55 0.1
2.5 0.55 0.1
3 0.55 0.1
3.5 0.55 0.1
4 0.55 0.1
4.5 0.55 0.1
5 0.55 0.1
0 0.6 0.1
0.5 0.6 0.1
1 0.6 0.1
1.5 0.6 0.1
2 0.6 0.1
2.5 0.6 0.1
3 0.6 0.1
3.5 0.6 0.1
4 0.6 0.1
4.5 0.6 0.1
5 0.6 0.1
0 0.65 0.1
0.5 0.65 0.1
1 0.65 0.1
1.5 0.65 0.1
2 0.65 0.1
2.5 0.65 0.1
3 0.65 0.1
3.5 0.65 0.1
4 0.65 0.1
4.5 0.65 0.1
5 0.65 0.1
0 0.7 0.1
0.5 0.7 0.1
1 0.7 0.1
1.5 0.7 0.1
2 0.7 0.1
2.5 0.7 0.1
3 0.7 0.1
3.5 0.7 0.1
4 0.7 0.1
4.5 0.7 0.1
5 0.7 0.1
0 0.75 0.1
0.5 0.75 0.1
1 0.75 0.1
1.5 0.75 0.1
2 0.75 0.1
2.5 0.75 0.1
3 0.75 0.1
3.5 0.75 0.1
4 0.75 0.1
4.5 0.75 0.1
5 0.75 0.1
0 0.8 0.1
0.5 0.8 0.1
1 0.8 0.1
1.5 0.8 0.1
2 0.8 0.1
2.5 0.8 0.1
3 0.8 0.1
3.5 0.8 0.1
4 0.8 0.1
4.5 0.8 0.1
5 0.8 0.1
0 0.85 0.1
0.5 0.85 0.1
1 0.85 0.1
1.5 0.85 0.1
2 0.85 0.1
2.5 0.85 0.1
3 0.85 0.1
3.5 0.85 0.1
4 0.85 0.1
4.5 0.85 0.1
5 0.85 0.1
0 0.9 0.1
0.5 0.9 0.1
1 0.9 0.1
1.5 0.9 0.1
2 0.9 0.1
2.5 0.9 0.1
3 0.9 0.1
3.5 0.9 0.1
4 0.9 0.1
4.5 0.9 0.1
5 0.9 0.1
0 0.95 0.1
0.5 0.95 0.1
1 0.95 0.1
1.5 0.95 0.1
2 0.95 0.1
2.5 0.95 0.1
3 0.95 0.1
3.5 0.95 0.1
4 0.95 0.1
4.5 0.95 0.1
5 0.95 0.1
0 1 0.1
0.5 1 0.1
1 1 0.1
1.5 1 0.1
2 1 0.1
2.5 1 0.1
3 1 0.1
3.5 1 0.1
4 1 0.1
4.5 1 0.1
5 1 0.1
0 0 0.2
0.5 0 0.2
1 0 0.2
1.5 0 0.2
2 0 0.2
2.5 0 0.2
3 0 0.2
3.5 0 0.2
4 0 0.2
4.5 0 0.2
5 0 0.2
0 0.05 0.2
0.5 0.05 0.2
1 0.05 0.2
1.5 0.05 0.2
2 0.05 0.2
2.5 0.05 0.2
3 0.05 0.2
3.5 0.05 0.2
4 0.05 0.2
4.5 0.05 0.2
5 0.05 0.2
0 0.1 0.2
0.5 0.1 0.2
1 0.1 0.2
1.5 0.1 0.2
2 0.1 0.2
2.5 0.1 0.2
3 0.1 0.2
3.5 0.1 0.2
4 0.1 0.2
4.5 0.1 0.2
5 0.1 0.2
0 0.15 0.2
0.5 0.15 0.2
1 0.15 0.2
1.5 0.15 0.2
2 0.15 0.2
2.5 0.15 0.2
3 0.15 0.2
3.5 0.15 0.2
4 0.15 0.2
4.5 0.15 0.2
5 0.15 0.2
0 0.2 0.2
0.5 0.2 0.2
1 0.2 0.2
1.5 0.2 0.2
2 0.2 0.2
2.5 0.2 0.2
3 0.2 0.2
3.5 0.2 0.2
4 0.2 0.2
4.5 0.2 0.2
5 0.2 0.2
0 0.25 0.2
0.5 0.25 0.2
1 0.25 0.2
1.5 0.25 0.2
2 0.25 0.2
2.5 0.25 0.2
3 0.25 0.2
3.5 0.25 0.2
4 0.25 0.2
4.5 0.25 0.2
5 0.25 0.2
0 0.3 0.2
0.5 0.3 0.2
1 0.3 0.2
1.5 0.3 0.2
2 0.3 0.2
2.5 0.3 0.2
3 0.3 0.2
3.5 0.3 0.2
4 0.3 0.2
4.5 0.3 0.2
5 0.3 0.2
0 0.35 0.2
0.5 0.35 0.2
1 0.35 0.2
1.5 0.35 0.2
2 0.35 0.2
2.5 0.35 0.2
3 0.35 0.2
3.5 0.35 0.2
4 0.35 0.2
4.5 0.35 0.2
5 0.35 0.2
0 0.4 0.2
0.5 0.4 0.2
1 0.4 0.2
1.5 0.4 0.2
2 0.4 0.2
2.5 0.4 0.2
3 0.4 0.2
3.5 0.4 0.2
4 0.4 0.2
4.5 0.4 0.2
5 0.4 0.2
0 0.45 0.2
0.5 0.45 0.2
1 0.45 0.2
1.5 0.45 0.2
2 0.45 0.2
2.5 0.45 0.2
3 0.45 0.2
3.5 0.45 0.2
4 0.45 0.2
4.5 0.45 0.2
5 0.45 0.2
0 0.5 0.2
0.5 0.5 0.2
1 0.5 0.2
1.5 0.5 0.2
2 0.5 0.2
2.5 0.5 0.2
3 0.5 0.2
3.5 0.5 0.2
4 0.5 0.2
4.5 0.5 0.2
5 0.5 0.2
0 0.55 0.2
0.5 0.55 0.2
1 0.55 0.2
1.5 0.55 0.2
2 0.55 0.2
2.5 0.55 0.2
3 0.55 0.2
3.5 0.55 0.2
4 0.55 0.2
4.5 0.55 0.2
5 0.55 0.2
0 0.6 0.2
0.5 0.6 0.2
1 0.6 0.2
1.5 0.6 0.2
2 0.6 0.2
2.5 0.6 0.2
3 0.6 0.2
3.5 0.6 0.2
4 0.6 0.2
4.5 0.6 0.2
5 0.6 0.2
0 0.65 0.2
0.5 0.65 0.2
1 0.65 0.2
1.5 0.65 0.2
2 0.65 0.2
2.5 0.65 0.2
3 0.65 0.2
3.5 0.65 0.2
4 0.65 0.2
4.5 0.65 0.2
5 0.65 0.2
0 0.7 0.2
0.5 0.7 0.2
1 0.7 0.2
1.5 0.7 0.2
2 0.7 0.2
2.5 0.7 0.2
3 0.7 0.2
3.5 0.7 0.2
4 0.7 0.2
4.5 0.7 0.2
5 0.7 0.2
0 0.75 0.2
0.5 0.75 0.2
1 0.75 0.2
1.5 0.75 0.2
2 0.75 0.2
2.5 0.75 0.2
3 0.75 0.2
3.5 0.75 0.2
4 0.75 0.2
4.5 0.75 0.2
5 0.75 0.2
0 0.8 0.2
0.5 0.8 0.2
1 0.8 0.2
1.5 0.8 0.2
2 0.8 0.2
2.5 0.8 0.2
3 0.8 0.2
3.5 0.8 0.2
4 0.8 0.2
4.5 0.8 0.2
5 0.8 0.2
0 0.85 0.2
0.5 0.85 0.2
1 0.85 0.2
1.5 0.85 0.2
2 0.85 0.2
2.5 0.85 0.2
3 0.85 0.2
3.5 0.85 0.2
4 0.85 0.2
4.5 0.85 0.2
5 0.85 0.2
0 0.9 0.2
0.5 0.9 0.2
1 0.9 0.2
1.5 0.9 0.2
2 0.9 0.2
2.5 0.9 0.2
3 0.9 0.2
3.5 0.9 0.2
4 0.9 0.2
4.5 0.9 0.2
5 0.9 0.2
0 0.95 0.2
0.5 0.95 0.2
1 0.95 0.2
1.5 0.95 0.2
2 0.95 0.2
2.5 0.95 0.2
3 0.95 0.2
3.5 0.95 0.2
4 0.95 0.2
4.5 0.95 0.2
5 0.95 0.2
0 1 0.2
0.5 1 0.2
1 1 0.2
1.5 1 0.2
2 1 0.2
2.5 1 0.2
3 1 0.2
3.5 1 0.2
4 1 0.2
4.5 1 0.2
5 1 0.2
0 0 0.3
0.5 0 0.3
1 0 0.3
1.5 0 0.3
2 0 0.3
2.5 0 0.3
3 0 0.3
3.5 0 0.3
4 0 0.3
4.5 0 0.3
5 0 0.3
0 0.05 0.3
0.5 0.05 0.3
1 0.05 0.3
1.5 0.05 0.3
2 0.05 0.3
2.5 0.05 0.3
3 0.05 0.3
3.5 0.05 0.3
4 0.05 0.3
4.5 0.05 0.3
5 0.05 0.3
0 0.1 0.3
0.5 0.1 0.3
1 0.1 0.3
1.5 0.1 0.3
2 0.1 0.3
2.5 0.1 0.3
3 0.1 0.3
3.5 0.1 0.3
4 0.1 0.3
4.5 0.1 0.3
5 0.1 0.3
0 0.15 0.3
0.5 0.15 0.3
1 0.15 0.3
1.5 0.15 0.3
2 0.15 0.3
2.5 0.15 0.3
3 0.15 0.3
3.5 0.15 0.3
4 0.15 0.3
4.5 0.15 0.3
5 0.15 0.3
0 0.2 0.3
0.5 0.2 0.3
1 0.2 0.3
1.5 0.2 0.3
2 0.2 0.3
2.5 0.2 0.3
3 0.2 0.3
3.5 0.2 0.3
4 0.2 0.3
4.5 0.2 0.3
5 0.2 0.3
0 0.25 0.3
0.5 0.25 0.3
1 0.25 0.3
1.5 0.25 0.3
2 0.25 0.3
2.5 0.25 0.3
3 0.25 0.3
3.5 0.25 0.3
4 0.25 0.3
4.5 0.25 0.3
5 0.25 0.3
0 0.3 0.3
0.5 0.3 0.3
1 0.3 0.3
1.5 0.3 0.3
2 0.3 0.3
2.5 0.3 0.3
3 0.3 0.3
3.5 0.3 0.3
4 0.3 0.3
4.5 0.3 0.3
5 0.3 0.3
0 0.35 0.3
0.5 0.35 0.3
1 0.35 0.3
1.5 0.35 0.3
2 0.35 0.3
2.5 0.35 0.3
3 0.35 0.3
3.5 0.35 0.3
4 0.35 0.3
4.5 0.35 0.3
5 0.35 0.3
0 0.4 0.3
0.5 0.4 0.3
1 0.4 0.3
1.5 0.4 0.3
2 0.4 0.3
2.5 0.4 0.3
3 0.4 0.3
3.5 0.4 0.3
4 0.4 0.3
4.5 0.4 0.3
5 0.4 0.3
0 0.45 0.3
0.5 0.45 0.3
1 0.45 0.3
1.5 0.45 0.3
2 0.45 0.3
2.5 0.45 0.3
3 0.45 0.3
3.5 0.45 0.3
4 0.45 0.3
4.5 0.45 0.3
5 0.45 0.3
0 0.5 0.3
0.5 0.5 0.3
1 0.5 0.3
1.5 0.5 0.3
2 0.5 0.3
2.5 0.5 0.3
3 0.5 0.3
3.5 0.5 0.3
4 0.5 0.3
4.5 0.5 0.3
5 0.5 0.3
0 0.55 0.3
0.5 0.55 0.3
1 0.55 0.3
1.5 0.55 0.3
2 0.55 0.3
2.5 0.55 0.3
3 0.55 0.3
3.5 0.55 0.3
4 0.55 0.3
4.5 0.55 0.3
5 0.55 0.3
0 0.6 0.3
0.5 0.6 0.3
1 0.6 0.3
1.5 0.6 0.3
2 0.6 0.3
2.5 0.6 0.3
3 0.6 0.3
3.5 0.6 0.3
4 0.6 0.3
4.5 0.6 0.3
5 0.6 0.3
0 0.65 0.3
0.5 0.65 0.3
1 0.65 0.3
1.5 0.65 0.3
2 0.65 0.3
2.5 0.65 0.3
3 0.65 0.3
3.5 0.65 0.3
4 0.65 0.3
4.5 0.65 0.3
5 0.65 0.3
0 0.7 0.3
0.5 0.7 0.3
1 0.7 0.3
1.5 0.7 0.3
2 0.7 0.3
2.5 0.7 0.3
3 0.7 0.3
3.5 0.7 0.3
4 0.7 0.3
4.5 0.7 0.3
5 0.7 0.3
0 0.75 0.3
0.5 0.75 0.3
1 0.75 0.3
1.5 0.75 0.3
2 0.75 0.3
2.5 0.75 0.3
3 0.75 0.3
3.5 0.75 0.3
4 0.75 0.3
4.5 0.75 0.3
5 0.75 0.3
0 0.8 0.3
0.5 0.8 0.3
1 0.8 0.3
1.5 0.8 0.3
2 0.8 0.3
2.5 0.8 0.3
3 0.8 0.3
3.5 0.8 0.3
4 0.8 0.3
4.5 0.8 0.3
5 0.8 0.3
0 0.85 0.3
0.5 0.85 0.3
1 0.85 0.3
1.5 0.85 0.3
2 0.85 0.3
2.5 0.85 0.3
3 0.85 0.3
3.5 0.85 0.3
4 0.85 0.3
4.5 0.85 0.3
5 0.85 0.3
0 0.9 0.3
0.5 0.9 0.3
1 0.9 0.3
1.5 0.9 0.3
2 0.9 0.3
2.5 0.9 0.3
3 0.9 0.3
3.5 0.9 0.3
4 0.9 0.3
4.5 0.9 0.3
5 0.9 0.3
0 0.95 0.3
0.5 0.95 0.3
1 0.95 0.3
1.5 0.95 0.3
2 0.95 0.3
2.5 0.95 0.3
3 0.95 0.3
3.5 0.95 0.3
4 0.95 0.3
4.5 0.95 0.3
5 0.95 0.3
0 1 0.3
0.5 1 0.3
1 1 0.3
1.5 1 0.3
2 1 0.3
2.5 1 0.3
3 1 0.3
3.5 1 0.3
4 1 0.3
4.5 1 0.3
5 1 0.3
0 0 0.4
[...]
CELL_DATA 2000
SCALARS pressure float 1
LOOKUP_TABLE default
0
0
0.847152
0.915695
0.748641
0.600434
0.458064
0.317249
0.176168
0.0233571
0
0
0.843979
0.909042
0.748043
0.600307
0.458035
0.317245
0.176154
0.0251665
0
0
0.813771
0.905197
0.747107
0.600103
0.457987
0.317238
0.176209
0.0271111
0
0
0.800085
0.896365
0.745882
0.599832
0.457922
0.317229
0.176308
0.0288058
1.22874
1.36708
0.801829
0.887723
0.744392
0.599507
0.457845
0.317219
0.176421
0.0301794
1.22711
1.36779
0.816462
0.879562
0.742754
0.599141
0.457756
0.317205
0.176531
0.0312669
1.22192
1.36693
0.836106
0.872815
0.741075
0.598748
0.457658
0.31719
0.176629
0.0321004
1.21385
1.36379
0.861355
0.867723
0.739439
0.598339
0.457553
0.31717
0.176707
0.0327046
1.2053
1.35851
0.887237
0.864211
0.737913
0.597924
0.457445
0.317147
0.176759
0.0330973
1.19786
1.3522
0.91122
0.861908
0.736523
0.597512
0.457333
0.317121
0.176782
0.03329
1.1921
1.3457
0.932724
0.860494
0.735275
0.59711
0.457222
0.317092
0.176774
0.0332887
1.18835
1.33954
0.951576
0.859713
0.73416
0.596725
0.457112
0.31706
0.176736
0.0330933
1.18698
1.33409
0.967749
0.859347
0.733169
0.596361
0.457007
0.317026
0.17667
0.0326981
1.18801
1.32951
0.981303
0.859217
0.732291
0.596023
0.456907
0.316992
0.176579
0.0320915
1.19135
1.32585
0.992338
0.859175
0.731511
0.595714
0.456815
0.316958
0.176469
0.0312558
1.19683
1.32306
1.00097
0.859106
0.730818
0.595437
0.456732
0.316926
0.176347
0.0301662
1.20401
1.32105
1.00733
0.858922
0.730203
0.595194
0.45666
0.316898
0.176225
0.0287909
1.21132
1.31955
1.01158
0.858579
0.729662
0.594989
0.4566
0.316875
0.176118
0.0270946
1.2162
1.31862
1.01393
0.858115
0.729222
0.594832
0.456555
0.316858
0.176056
0.0251489
1.2178
1.31832
1.01428
0.85757
0.728914
0.594732
0.456528
0.316849
0.176067
0.0233389
0
0
0.855965
0.914552
0.748788
0.600422
0.458059
0.31726
0.17633
0.02707
0
0
0.850746
0.908307
0.747893
0.60026
0.458024
0.317252
0.176238
0.0300221
0
0
0.820904
0.904391
0.746864
0.600038
0.457972
0.317242
0.176344
0.0323066
0
0
0.824026
0.897969
0.745558
0.599762
0.457908
0.317234
0.176476
0.0340182
1.2165
1.3626
0.781295
0.888432
0.744052
0.599443
0.457832
0.317225
0.176607
0.0354039
1.21445
1.37957
0.788279
0.878053
0.742408
0.599087
0.457745
0.317214
0.176729
0.0365022
1.21052
1.37946
0.815387
0.870406
0.740755
0.598706
0.45765
0.317199
0.176833
0.0373445
1.20524
1.37202
0.845405
0.865613
0.739189
0.598308
0.457548
0.317181
0.176915
0.0379551
1.19935
1.36274
0.874797
0.862559
0.73774
0.597905
0.457442
0.317159
0.176969
0.0383519
1.19369
1.35297
0.902219
0.860647
0.736415
0.597504
0.457333
0.317134
0.176992
0.0385467
1.18932
1.34356
0.926389
0.859578
0.735219
0.597113
0.457224
0.317105
0.176985
0.0385454
1.18637
1.33533
0.947178
0.859083
0.73415
0.596738
0.457118
0.317073
0.176947
0.0383481
1.18483
1.32878
0.964794
0.858947
0.733198
0.596385
0.457015
0.31704
0.176879
0.0379488
1.18473
1.32404
0.979435
0.858999
0.732354
0.596056
0.456917
0.317005
0.176784
0.0373358
1.18642
1.32092
0.991263
0.859102
0.731603
0.595755
0.456827
0.316971
0.176667
0.0364914
1.19
1.31896
1.00043
0.859147
0.730935
0.595485
0.456746
0.316939
0.176535
0.0353911
1.19447
1.31757
1.00709
0.859059
0.730341
0.595247
0.456674
0.31691
0.176394
0.0340037
1.19914
1.31643
1.01142
0.85878
0.729815
0.595044
0.456615
0.316886
0.176254
0.0322906
1.20311
1.31591
1.01376
0.858279
0.729347
0.594876
0.456567
0.316871
0.176141
0.0300049
1.20588
1.31709
1.01405
0.85758
0.72897
0.594755
0.456535
0.316863
0.17623
0.027052
0
0
0.866419
0.916287
0.749083
0.600416
0.458053
0.317281
0.17661
0.030107
0
0
0.860611
0.910756
0.748126
0.60024
0.458015
0.317273
0.176529
0.033319
0
0
0.834771
0.907698
0.747085
0.600005
0.457961
0.317265
0.176664
0.0357794
0
0
0.839957
0.902638
0.745828
0.599731
0.457897
0.317258
0.17682
0.0375766
1.20325
1.3522
0.77551
0.893372
0.744366
0.599415
0.457821
0.317251
0.176968
0.0390119
1.20136
1.3854
0.759519
0.881262
0.742704
0.599061
0.457736
0.317241
0.177102
0.0401428
1.20061
1.3962
0.782339
0.870899
0.740937
0.598683
0.457643
0.317228
0.177214
0.0410063
1.20328
1.38973
0.820743
0.864021
0.739221
0.598289
0.457543
0.317211
0.177301
0.0416304
1.20803
1.37331
0.857459
0.860281
0.737671
0.597891
0.45744
0.317191
0.177358
0.0420353
1.21277
1.35464
0.889268
0.858548
0.736316
0.597496
0.457334
0.317166
0.177384
0.0422339
1.2161
1.33821
0.916972
0.857897
0.735133
0.597114
0.457228
0.317138
0.177377
0.0422327
1.21692
1.3256
0.940775
0.857828
0.734093
0.596747
0.457124
0.317107
0.177337
0.0420316
1.21524
1.31698
0.960823
0.858063
0.733176
0.596403
0.457023
0.317073
0.177266
0.0416243
1.21102
1.31212
0.977392
0.858426
0.732366
0.596082
0.456928
0.317039
0.177166
0.0409979
1.20461
1.31056
0.990703
0.85879
0.731647
0.595789
0.45684
0.317004
0.177041
0.0401323
1.19745
1.31135
1.00076
0.85905
0.73101
0.595526
0.45676
0.316971
0.176897
0.0389994
1.1914
1.31285
1.00765
0.859117
0.730445
0.595295
0.45669
0.316941
0.176739
0.0375625
1.18865
1.31382
1.01182
0.858913
0.729935
0.595095
0.456631
0.316915
0.176576
0.0357638
1.1899
1.31458
1.01405
0.858413
0.729457
0.59492
0.456581
0.316898
0.176434
0.0333022
1.19265
1.3166
1.01441
0.857681
0.729055
0.594791
0.456547
0.316889
0.176511
0.0300894
0
0
0.872335
0.918442
0.749381
0.600421
0.458049
0.317303
0.17686
0.0320406
0
0
0.867078
0.913187
0.748422
0.600243
0.458011
0.317295
0.176785
0.0353091
0
0
0.841768
0.910712
0.747407
0.600007
0.457956
0.317288
0.176931
0.0378235
0
0
0.844257
0.906261
0.746204
0.599737
0.457893
0.317284
0.177097
0.0396617
1.19637
1.35509
0.775683
0.897234
0.744797
0.599426
0.457819
0.317278
0.177255
0.0411274
1.1957
1.39191
0.748105
0.884713
0.743158
0.599079
0.457735
0.317269
0.177396
0.0422805
1.19879
1.40744
0.756321
0.872745
0.741336
0.598702
0.457643
0.317257
0.177514
0.04316
1.20965
1.40299
0.790149
0.863793
0.739484
0.598305
0.457544
0.317241
0.177605
0.0437951
1.2271
1.38317
0.833973
0.858726
0.737772
0.597901
0.457442
0.317221
0.177665
0.0442068
1.24587
1.357
0.87433
0.856546
0.736289
0.597503
0.457337
0.317198
0.177692
0.0444086
1.26012
1.33186
0.907419
0.855941
0.735032
0.597117
0.457232
0.31717
0.177685
0.0444074
1.26656
1.31231
0.934776
0.856134
0.733964
0.596751
0.457129
0.317139
0.177644
0.0442032
1.26479
1.30045
0.957776
0.856716
0.733044
0.596407
0.45703
0.317105
0.17757
0.0437891
1.25464
1.29611
0.976509
0.857459
0.732253
0.59609
0.456936
0.31707
0.177467
0.0431518
1.23688
1.2974
0.990824
0.858185
0.731575
0.595802
0.456849
0.317035
0.177337
0.0422702
1.21546
1.30172
1.0011
0.858732
0.730987
0.595545
0.45677
0.317001
0.177185
0.0411152
1.1969
1.30689
1.00801
0.858984
0.730459
0.595318
0.456701
0.31697
0.177018
0.0396479
1.18628
1.31109
1.0122
0.858874
0.729968
0.59512
0.456642
0.316943
0.176843
0.0378082
1.18394
1.31367
1.0144
0.858415
0.729496
0.594944
0.456591
0.316924
0.176691
0.0352925
1.18555
1.31643
1.01484
0.857702
0.729095
0.594815
0.456557
0.316914
0.176763
0.0320232
0
0
0.874267
0.919701
0.749564
0.600427
0.458048
0.317316
0.177002
0.0329705
0
0
0.868985
0.914558
0.748609
0.600249
0.45801
0.317309
0.176928
0.0362528
0
0
0.843237
0.912335
0.747609
0.600014
0.457955
0.317303
0.177077
0.0387853
0
0
0.844732
0.908141
0.746433
0.599746
0.457892
0.317299
0.177248
0.04064
1.19397
1.35909
0.775023
0.89921
0.745052
0.599438
0.457818
0.317293
0.17741
0.042119
1.19418
1.39688
0.74508
0.886563
0.743431
0.599094
0.457735
0.317285
0.177554
0.0432825
1.20025
1.41304
0.74832
0.874243
0.741605
0.59872
0.457643
0.317274
0.177675
0.0441698
1.21689
1.40864
0.775109
0.864509
0.739711
0.598324
0.457546
0.317259
0.177768
0.0448105
1.24211
1.3877
0.81532
0.858233
0.737905
0.597917
0.457444
0.317239
0.177829
0.0452258
1.26947
1.3583
0.859325
0.855145
0.736303
0.597511
0.457339
0.317216
0.177857
0.0454295
1.29139
1.32872
0.899589
0.854319
0.734948
0.597117
0.457234
0.317188
0.17785
0.0454283
1.30183
1.30478
0.932465
0.854741
0.733825
0.596745
0.457132
0.317157
0.177808
0.0452222
1.29978
1.29036
0.95774
0.855709
0.732904
0.596401
0.457033
0.317124
0.177734
0.0448046
1.28522
1.28592
0.976758
0.8568
0.732147
0.596088
0.45694
0.317089
0.177628
0.0441617
1.25968
1.28874
0.990934
0.857779
0.731509
0.595805
0.456853
0.317053
0.177495
0.0432723
1.22982
1.29554
1.00122
0.858498
0.730952
0.595552
0.456775
0.317019
0.17734
0.0421069
1.20364
1.30321
1.00819
0.85886
0.730446
0.595327
0.456706
0.316987
0.177169
0.0406263
1.18739
1.30937
1.01239
0.858811
0.729969
0.59513
0.456647
0.31696
0.17699
0.0387702
1.18223
1.31315
1.01461
0.858384
0.729504
0.594955
0.456596
0.31694
0.176835
0.0362363
1.183
1.31639
1.01511
0.857689
0.729106
0.594826
0.456562
0.31693
0.176905
0.0329532
0
0
0.874267
0.919701
0.749564
0.600427
0.458048
0.317316
0.177002
0.0329705
0
0
0.868985
0.914558
0.748609
0.600249
0.45801
0.317309
0.176928
0.0362528
0
0
0.843237
0.912335
0.747609
0.600014
0.457955
0.317303
0.177077
0.0387853
0
0
0.844732
0.908141
0.746433
0.599746
0.457892
0.317299
0.177248
0.04064
1.19397
1.35909
0.775023
0.89921
0.745052
0.599438
0.457818
0.317293
0.17741
0.042119
1.19418
1.39688
0.74508
0.886563
0.743431
0.599094
0.457735
0.317285
0.177554
0.0432825
1.20025
1.41304
0.74832
0.874243
0.741605
0.59872
0.457643
0.317274
0.177675
0.0441698
1.21689
1.40864
0.775109
0.864509
0.739711
0.598324
0.457546
0.317259
0.177768
0.0448105
1.24211
1.3877
0.81532
0.858233
0.737905
0.597917
0.457444
0.317239
0.177829
0.0452258
1.26947
1.3583
0.859325
0.855145
0.736303
0.597511
0.457339
0.317216
0.177857
0.0454295
1.29139
1.32872
0.899589
0.854319
0.734948
0.597117
0.457234
0.317188
0.17785
0.0454283
1.30183
1.30478
0.932465
0.854741
0.733825
0.596745
0.457132
0.317157
0.177808
0.0452222
1.29978
1.29036
0.95774
0.855709
0.732904
0.596401
0.457033
0.317124
0.177734
0.0448046
1.28522
1.28592
0.976758
0.8568
0.732147
0.596088
0.45694
0.317089
0.177628
0.0441617
1.25968
1.28874
0.990934
0.857779
0.731509
0.595805
0.456853
0.317053
0.177495
0.0432723
1.22982
1.29554
1.00122
0.858498
0.730952
0.595552
0.456775
0.317019
0.17734
0.0421069
1.20364
1.30321
1.00819
0.85886
0.730446
0.595327
0.456706
0.316987
0.177169
0.0406263
1.18739
1.30937
1.01239
0.858811
0.729969
0.59513
0.456647
0.31696
0.17699
0.0387702
1.18223
1.31315
1.01461
0.858384
0.729504
0.594955
0.456596
0.31694
0.176835
0.0362363
1.183
1.31639
1.01511
0.857689
0.729106
0.594826
0.456562
0.31693
0.176905
0.0329532
0
0
0.872335
0.918442
0.749381
0.600421
0.458049
0.317303
0.17686
0.0320406
0
0
0.867078
0.913187
0.748422
0.600243
0.458011
0.317295
0.176785
0.0353091
0
0
0.841768
0.910712
0.747407
0.600007
0.457956
0.317288
0.176931
0.0378235
0
0
0.844257
0.906261
0.746204
0.599737
0.457893
0.317284
0.177097
0.0396617
1.19637
1.35509
0.775683
0.897234
0.744797
0.599426
0.457819
0.317278
0.177255
0.0411274
1.1957
1.39191
0.748105
0.884713
0.743158
0.599079
0.457735
0.317269
0.177396
0.0422805
1.19879
1.40744
0.756321
0.872745
0.741336
0.598702
0.457643
0.317257
0.177514
0.04316
1.20965
1.40299
0.790149
0.863793
0.739484
0.598305
0.457544
0.317241
0.177605
0.0437951
1.2271
1.38317
0.833973
0.858726
0.737772
0.597901
0.457442
0.317221
0.177665
0.0442068
1.24587
1.357
0.87433
0.856546
0.736289
0.597503
0.457337
0.317198
0.177692
0.0444086
1.26012
1.33186
0.907419
0.855941
0.735032
0.597117
0.457232
0.31717
0.177685
0.0444074
1.26656
1.31231
0.934776
0.856134
0.733964
0.596751
0.457129
0.317139
0.177644
0.0442032
1.26479
1.30045
0.957776
0.856716
0.733044
0.596407
0.45703
0.317105
0.17757
0.0437891
1.25464
1.29611
0.976509
0.857459
0.732253
0.59609
0.456936
0.31707
0.177467
0.0431518
1.23688
1.2974
0.990824
0.858185
0.731575
0.595802
0.456849
0.317035
0.177337
0.0422702
1.21546
1.30172
1.0011
0.858732
0.730987
0.595545
0.45677
0.317001
0.177185
0.0411152
1.1969
1.30689
1.00801
0.858984
0.730459
0.595318
0.456701
0.31697
0.177018
0.0396479
1.18628
1.31109
1.0122
0.858874
0.729968
0.59512
0.456642
0.316943
0.176843
0.0378082
1.18394
1.31367
1.0144
0.858415
0.729496
0.594944
0.456591
0.316924
0.176691
0.0352925
1.18555
1.31643
1.01484
0.857702
0.729095
0.594815
0.456557
0.316914
0.176763
0.0320232
0
0
0.866419
0.916287
0.749083
0.600416
0.458053
0.317281
0.17661
0.030107
0
0
0.860611
0.910756
0.748126
0.60024
0.458015
0.317273
0.176529
0.033319
0
0
0.834771
0.907698
0.747085
0.600005
0.457961
0.317265
0.176664
0.0357794
0
0
0.839957
0.902638
0.745828
0.599731
0.457897
0.317258
0.17682
0.0375766
1.20325
1.3522
0.77551
0.893372
0.744366
0.599415
0.457821
0.317251
0.176968
0.0390119
1.20136
1.3854
0.759519
0.881262
0.742704
0.599061
0.457736
0.317241
0.177102
0.0401428
1.20061
1.3962
0.782339
0.870899
0.740937
0.598683
0.457643
0.317228
0.177214
0.0410063
1.20328
1.38973
0.820743
0.864021
0.739221
0.598289
0.457543
0.317211
0.177301
0.0416304
1.20803
1.37331
0.857459
0.860281
0.737671
0.597891
0.45744
0.317191
0.177358
0.0420353
1.21277
1.35464
0.889268
0.858548
0.736316
0.597496
0.457334
0.317166
0.177384
0.0422339
1.2161
1.33821
0.916972
0.857897
0.735133
0.597114
0.457228
0.317138
0.177377
0.0422327
1.21692
1.3256
0.940775
0.857828
0.734093
0.596747
0.457124
0.317107
0.177337
0.0420316
1.21524
1.31698
0.960823
0.858063
0.733176
0.596403
0.457023
0.317073
0.177266
0.0416243
1.21102
1.31212
0.977392
0.858426
0.732366
0.596082
0.456928
0.317039
0.177166
0.0409979
1.20461
1.31056
0.990703
0.85879
0.731647
0.595789
0.45684
0.317004
0.177041
0.0401323
1.19745
1.31135
1.00076
0.85905
0.73101
0.595526
0.45676
0.316971
0.176897
0.0389994
1.1914
1.31285
1.00765
0.859117
0.730445
0.595295
0.45669
0.316941
0.176739
0.0375625
1.18865
1.31382
1.01182
0.858913
0.729935
0.595095
0.456631
0.316915
0.176576
0.0357638
1.1899
1.31458
1.01405
0.858413
0.729457
0.59492
0.456581
0.316898
0.176434
0.0333022
1.19265
1.3166
1.01441
0.857681
0.729055
0.594791
0.456547
0.316889
0.176511
0.0300894
0
0
0.855965
0.914552
0.748788
0.600422
0.458059
0.31726
0.17633
0.02707
0
0
0.850746
0.908307
0.747893
0.60026
0.458024
0.317252
0.176238
0.0300221
0
0
0.820904
0.904391
0.746864
0.600038
0.457972
0.317242
0.176344
0.0323066
0
0
0.824026
0.897969
0.745558
0.599762
0.457908
0.317234
0.176476
0.0340182
1.2165
1.3626
0.781295
0.888432
0.744052
0.599443
0.457832
0.317225
0.176607
0.0354039
1.21445
1.37957
0.788279
0.878053
0.742408
0.599087
0.457745
0.317214
0.176729
0.0365022
1.21052
1.37946
0.815387
0.870406
0.740755
0.598706
0.45765
0.317199
0.176833
0.0373445
1.20524
1.37202
0.845405
0.865613
0.739189
0.598308
0.457548
0.317181
0.176915
0.0379551
1.19935
1.36274
0.874797
0.862559
0.73774
0.597905
0.457442
0.317159
0.176969
0.0383519
1.19369
1.35297
0.902219
0.860647
0.736415
0.597504
0.457333
0.317134
0.176992
0.0385467
1.18932
1.34356
0.926389
0.859578
0.735219
0.597113
0.457224
0.317105
0.176985
0.0385454
1.18637
1.33533
0.947178
0.859083
0.73415
0.596738
0.457118
0.317073
0.176947
0.0383481
1.18483
1.32878
0.964794
0.858947
0.733198
0.596385
0.457015
0.31704
0.176879
0.0379488
1.18473
1.32404
0.979435
0.858999
0.732354
0.596056
0.456917
0.317005
0.176784
0.0373358
1.18642
1.32092
0.991263
0.859102
0.731603
0.595755
0.456827
0.316971
0.176667
0.0364914
1.19
1.31896
1.00043
0.859147
0.730935
0.595485
0.456746
0.316939
0.176535
0.0353911
1.19447
1.31757
1.00709
0.859059
0.730341
0.595247
0.456674
0.31691
0.176394
0.0340037
1.19914
1.31643
1.01142
0.85878
0.729815
0.595044
0.456615
0.316886
0.176254
0.0322906
1.20311
1.31591
1.01376
0.858279
0.729347
0.594876
0.456567
0.316871
0.176141
0.0300049
1.20588
1.31709
1.01405
0.85758
0.72897
0.594755
0.456535
0.316863
0.17623
0.027052
0
0
0.847152
0.915695
0.748641
0.600434
0.458064
0.317249
0.176168
0.0233571
0
0
0.843979
0.909042
0.748043
0.600307
0.458035
0.317245
0.176154
0.0251665
0
0
0.813771
0.905197
0.747107
0.600103
0.457987
0.317238
0.176209
0.0271111
0
0
0.800085
0.896365
0.745882
0.599832
0.457922
0.317229
0.176308
0.0288058
1.22874
1.36708
0.801829
0.887723
0.744392
0.599507
0.457845
0.317219
0.176421
0.0301794
1.22711
1.36779
0.816462
0.879562
0.742754
0.599141
0.457756
0.317205
0.176531
0.0312669
1.22192
1.36693
0.836106
0.872815
0.741075
0.598748
0.457658
0.31719
0.176629
0.0321004
1.21385
1.36379
0.861355
0.867723
0.739439
0.598339
0.457553
0.31717
0.176707
0.0327046
1.2053
1.35851
0.887237
0.864211
0.737913
0.597924
0.457445
0.317147
0.176759
0.0330973
1.19786
1.3522
0.91122
0.861908
0.736523
0.597512
0.457333
0.317121
0.176782
0.03329
1.1921
1.3457
0.932724
0.860494
0.735275
0.59711
0.457222
0.317092
0.176774
0.0332887
1.18835
1.33954
0.951576
0.859713
0.73416
0.596725
0.457112
0.31706
0.176736
0.0330933
1.18698
1.33409
0.967749
0.859347
0.733169
0.596361
0.457007
0.317026
0.17667
0.0326981
1.18801
1.32951
0.981303
0.859217
0.732291
0.596023
0.456907
0.316992
0.176579
0.0320915
1.19135
1.32585
0.992338
0.859175
0.731511
0.595714
0.456815
0.316958
0.176469
0.0312558
1.19683
1.32306
1.00097
0.859106
0.730818
0.595437
0.456732
0.316926
0.176347
0.0301662
1.20401
1.32105
1.00733
0.858922
0.730203
0.595194
0.45666
0.316898
0.176225
0.0287909
1.21132
1.31955
1.01158
0.858579
0.729662
0.594989
0.4566
0.316875
0.176118
0.0270946
1.2162
1.31862
1.01393
0.858115
0.729222
0.594832
0.456555
0.316858
0.176056
0.0251489
1.2178
1.31832
1.01428
0.85757
0.728914
0.594732
0.456528
0.316849
0.176067
0.0233389

VECTORS velocity float
0 0 0
0 0 0
0.672046 -0.0282282 -0.00454361
0.622806 -0.0017772 0.00101176
0.640108 -0.000528242 0.000138703
0.645755 -0.00012257 3.35439e-05
0.647043 -2.69106e-05 7.90643e-06
0.647371 -8.08468e-06 -3.55392e-06
0.647633 1.04803e-05 -5.37756e-05
0.677777 -0.00204247 -0.0019109
0 0 0
0 0 0
-0.0755939 -0.0836923 -0.00378067
0.649269 -0.0106321 0.000824631
0.725024 -0.00208371 0.000234346
0.735784 -0.00043889 5.57186e-05
0.73779 -9.48721e-05 1.2525e-05
0.738264 -2.74664e-05 -2.56554e-06
0.739162 -3.20034e-05 -4.84191e-05
0.753736 -0.00421207 -0.00250622
0 0 0
0 0 0
0.697775 -0.142917 -0.00220626
0.696413 -0.0214724 0.000631011
0.739016 -0.00402743 0.000206399
0.748851 -0.0008309 5.61056e-05
0.750919 -0.000179075 1.31128e-05
0.751413 -5.01866e-05 -2.70253e-06
0.75227 -0.000128337 -5.92345e-05
0.763107 -0.0040394 -0.00262103
0 0 0
0 0 0
-0.0615991 -0.205175 -0.000472173
0.670814 -0.0312244 -0.000140899
0.740337 -0.00591784 0.000163176
0.75092 -0.00122136 5.2614e-05
0.752928 -0.000263442 1.25047e-05
0.753397 -7.19421e-05 -3.1464e-06
0.754084 -0.000193652 -6.97701e-05
0.764524 -0.00339849 -0.00265648
0.358083 -0.0148454 -0.0315758
0.698808 0.00871505 -0.0243633
0.698774 -0.237712 0.0114246
0.699971 -0.0413857 0.00121549
0.742783 -0.00772033 0.000222907
0.751416 -0.00158505 5.06601e-05
0.753192 -0.00034173 1.13218e-05
0.753611 -9.0878e-05 -3.75636e-06
0.754146 -0.000221132 -7.50123e-05
0.764813 -0.0027463 -0.00266956
0.44613 -0.0396044 -0.0403421
0.87488 0.0188166 -0.0283538
0.859207 -0.234142 0.0170394
0.727932 -0.048028 0.00248026
0.745404 -0.00920066 0.000269659
0.751791 -0.0019014 4.61304e-05
0.753278 -0.000410512 9.64688e-06
0.753635 -0.000106039 -4.46648e-06
0.754046 -0.000219879 -7.8157e-05
0.764961 -0.00215544 -0.0026781
0.495543 -0.0536085 -0.0458395
0.908226 0.0190062 -0.0261221
0.896643 -0.219581 0.0133861
0.743224 -0.0517118 0.00227825
0.747591 -0.0103307 0.000231455
0.752179 -0.00216081 3.6565e-05
0.753359 -0.00046765 7.52223e-06
0.753645 -0.000116978 -5.20588e-06
0.753957 -0.000197251 -8.00938e-05
0.76507 -0.00162079 -0.0026839
0.535407 -0.0570854 -0.0498617
0.910755 0.0161805 -0.0231776
0.901079 -0.200609 0.00787323
0.753344 -0.0531223 0.00157088
0.749688 -0.0111147 0.000166194
0.752602 -0.00235682 2.55157e-05
0.753447 -0.000511527 5.17678e-06
0.753657 -0.000123555 -5.93479e-06
0.753893 -0.000159166 -8.12993e-05
0.765149 -0.00112927 -0.00268772
0.567822 -0.0521918 -0.0529893
0.907888 0.0132748 -0.02103
0.899349 -0.179779 0.00412775
0.76197 -0.0526968 0.000939222
0.751856 -0.0115508 9.91354e-05
0.753055 -0.00248461 1.43186e-05
0.753543 -0.000540952 2.73286e-06
0.753673 -0.000125851 -6.62879e-06
0.753853 -0.000110483 -8.20354e-05
0.765202 -0.000667891 -0.00269004
0.592955 -0.0408491 -0.0555664
0.904597 0.0114243 -0.0197403
0.896742 -0.158856 0.00177751
0.769527 -0.0508272 0.000490444