# vtk DataFile Version 2.0
TestTestTest
ASCII

DATASET STRUCTURED_GRID
DIMENSIONS 11 21 11
POINTS 2541 float
0 0 0
0.5 0 0
1 0 0
1.5 0 0
2 0 0
2.5 0 0
3 0 0
3.5 0 0
4 0 0
4.5 0 0
5 0 0
0 0.05 0
0.5 0.05 0
1 0.05 0
1.5 0.05 0
2 0.05 0
2.5 0.05 0
3 0.05 0
3.5 0.05 0
4 0.05 0
4.5 0.05 0
5 0.05 0
0 0.1 0
0.5 0.1 0
1 0.1 0
1.5 0.1 0
2 0.1 0
2.5 0.1 0
3 0.1 0
3.5 0.1 0
4 0.1 0
4.5 0.1 0
5 0.1 0
0 0.15 0
0.5 0.15 0
1 0.15 0
1.5 0.15 0
2 0.15 0
2.5 0.15 0
3 0.15 0
3.5 0.15 0
4 0.15 0
4.5 0.15 0
5 0.15 0
0 0.2 0
0.5 0.2 0
1 0.2 0
1.5 0.2 0
2 0.2 0
2.5 0.2 0
3 0.2 0
3.5 0.2 0
4 0.2 0
4.5 0.2 0
5 0.2 0
0 0.25 0
0.5 0.25 0
1 0.25 0
1.5 0.25 0
2 0.25 0
2.5 0.25 0
3 0.25 0
3.5 0.25 0
4 0.25 0
4.5 0.25 0
5 0.25 0
0 0.3 0
0.5 0.3 0
1 0.3 0
1.5 0.3 0
2 0.3 0
2.5 0.3 0
3 0.3 0
3.5 0.3 0
4 0.3 0
4.5 0.3 0
5 0.3 0
0 0.35 0
0.5 0.35 0
1 0.35 0
1.5 0.35 0
2 0.35 0
2.5 0.35 0
3 0.35 0
3.5 0.35 0
4 0.35 0
4.5 0.35 0
5 0.35 0
0 0.4 0
0.5 0.4 0
1 0.4 0
1.5 0.4 0
2 0.4 0
2.5 0.4 0
3 0.4 0
3.5 0.4 0
4 0.4 0
4.5 0.4 0
5 0.4 0
0 0.45 0
0.5 0.45 0
1 0.45 0
1.5 0.45 0
2 0.45 0
2.5 0.45 0
3 0.45 0
3.5 0.45 0
4 0.45 0
4.5 0.45 0
5 0.45 0
0 0.5 0
0.5 0.5 0
1 0.5 0
1.5 0.5 0
2 0.5 0
2.5 0.5 0
3 0.5 0
3.5 0.5 0
4 0.5 0
4.5 0.5 0
5 0.5 0
0 0.55 0
0.5 0.55 0
1 0.55 0
1.5 0.55 0
2 0.55 0
2.5 0.55 0
3 0.55 0
3.5 0.55 0
4 0.55 0
4.5 0.55 0
5 0.55 0
0 0.6 0
0.5 0.6 0
1 0.6 0
1.5 0.6 0
2 0.6 0
2.5 0.6 0
3 0.6 0
3.5 0.6 0
4 0.6 0
4.5 0.6 0
5 0.6 0
0 0.65 0
0.5 0.65 0
1 0.65 0
1.5 0.65 0
2 0.65 0
2.5 0.65 0
3 0.65 0
3.5 0.65 0
4 0.65 0
4.5 0.65 0
5 0.65 0
0 0.7 0
0.5 0.7 0
1 0.7 0
1.5 0.7 0
2 0.7 0
2.5 0.7 0
3 0.7 0
3.5 0.7 0
4 0.7 0
4.5 0.7 0
5 0.7 0
0 0.75 0
0.5 0.75 0
1 0.75 0
1.5 0.75 0
2 0.75 0
2.5 0.75 0
3 0.75 0
3.5 0.75 0
4 0.75 0
4.5 0.75 0
5 0.75 0
0 0.8 0
0.5 0.8 0
1 0.8 0
1.5 0.8 0
2 0.8 0
2.5 0.8 0
3 0.8 0
3.5 0.8 0
4 0.8 0
4.5 0.8 0
5 0.8 0
0 0.85 0
0.5 0.85 0
1 0.85 0
1.5 0.85 0
2 0.85 0
2.5 0.85 0
3 0.85 0
3.5 0.85 0
4 0.85 0
4.5 0.85 0
5 0.85 0
0 0.9 0
0.5 0.9 0
1 0.9 0
1.5 0.9 0
2 0.9 0
2.5 0.9 0
3 0.9 0
3.5 0.9 0
4 0.9 0
4.5 0.9 0
5 0.9 0
0 0.95 0
0.5 0.95 0
1 0.95 0
1.5 0.95 0
2 0.95 0
2.5 0.95 0
3 0.95 0
3.5 0.95 0
4 0.95 0
4.5 0.95 0
5 0.95 0
0 1 0
0.5 1 0
1 1 0
1.5 1 0
2 1 0
2.5 1 0
3 1 0
3.5 1 0
4 1 0
4.5 1 0
5 1 0
0 0 0.1
0.5 0 0.1
1 0 0.1
1.5 0 0.1
2 0 0.1
2.5 0 0.1
3 0 0.1
3.5 0 0.1
4 0 0.1
4.5 0 0.1
5 0 0.1
0 0.05 0.1
0.5 0.05 0.1
1 0.05 0.1
1.5 0.05 0.1
2 0.05 0.1
2.5 0.05 0.1
3 0.05 0.1
3.5 0.05 0.1
4 0.05 0.1
4.5 0.05 0.1
5 0.05 0.1
0 0.1 0.1
0.5 0.1 0.1
1 0.1 0.1
1.5 0.1 0.1
2 0.1 0.1
2.5 0.1 0.1
3 0.1 0.1
3.5 0.1 0.1
4 0.1 0.1
4.5 0.1 0.1
5 0.1 0.1
0 0.15 0.1
0.5 0.15 0.1
1 0.15 0.1
1.5 0.15 0.1
2 0.15 0.1
2.5 0.15 0.1
3 0.15 0.1
3.5 0.15 0.1
4 0.15 0.1
4.5 0.15 0.1
5 0.15 0.1
0 0.2 0.1
0.5 0.2 0.1
1 0.2 0.1
1.5 0.2 0.1
2 0.2 0.1
2.5 0.2 0.1
3 0.2 0.1
3.5 0.2 0.1
4 0.2 0.1
4.5 0.2 0.1
5 0.2 0.1
0 0.25 0.1
0.5 0.25 0.1
1 0.25 0.1
1.5 0.25 0.1
2 0.25 0.1
2.5 0.25 0.1
3 0.25 0.1
3.5 0.25 0.1
4 0.25 0.1
4.5 0.25 0.1
5 0.25 0.1
0 0.3 0.1
0.5 0.3 0.1
1 0.3 0.1
1.5 0.3 0.1
2 0.3 0.1
2.5 0.3 0.1
3 0.3 0.1
3.5 0.3 0.1
4 0.3 0.1
4.5 0.3 0.1
5 0.3 0.1
0 0.35 0.1
0.5 0.35 0.1
1 0.35 0.1
1.5 0.35 0.1
2 0.35 0.1
2.5 0.35 0.1
3 0.35 0.1
3.5 0.35 0.1
4 0.35 0.1
4.5 0.35 0.1
5 0.35 0.1
0 0.4 0.1
0.5 0.4 0.1
1 0.4 0.1
1.5 0.4 0.1
2 0.4 0.1
2.5 0.4 0.1
3 0.4 0.1
3.5 0.4 0.1
4 0.4 0.1
4.5 0.4 0.1
5 0.4 0.1
0 0.45 0.1
0.5 0.45 0.1
1 0.45 0.1
1.5 0.45 0.1
2 0.45 0.1
2.5 0.45 0.1
3 0.45 0.1
3.5 0.45 0.1
4 0.45 0.1
4.5 0.45 0.1
5 0.45 0.1
0 0.5 0.1
0.5 0.5 0.1
1 0.5 0.1
1.5 0.5 0.1
2 0.5 0.1
2.5 0.5 0.1
3 0.5 0.1
3.5 0.5 0.1
4 0.5 0.1
4.5 0.5 0.1
5 0.5 0.1
0 0.55 0.1
0.5 0.55 0.1
1 0.55 0.1
1.5 0.55 0.1
2 0.55 0.1
2.5 0.55 0.1
3 0.55 0.1
3.5 0.55 0.1
4 0.55 0.1
4.5 0.55 0.1
5 0.55 0.1
0 0.6 0.1
0.5 0.6 0.1
1 0.6 0.1
1.5 0.6 0.1
2 0.6 0.1
2.5 0.6 0.1
3 0.6 0.1
3.5 0.6 0.1
4 0.6 0.1
4.5 0.6 0.1
5 0.6 0.1
0 0.65 0.1
0.5 0.65 0.1
1 0.65 0.1
1.5 0.65 0.1
2 0.65 0.1
2.5 0.65 0.1
3 0.65 0.1
3.5 0.65 0.1
4 0.65 0.1
4.5 0.65 0.1
5 0.65 0.1
0 0.7 0.1
0.5 0.7 0.1
1 0.7 0.1
1.5 0.7 0.1
2 0.7 0.1
2.5 0.7 0.1
3 0.7 0.1
3.5 0.7 0.1
4 0.7 0.1
4.5 0.7 0.1
5 0.7 0.1
0 0.75 0.1
0.5 0.75 0.1
1 0.75 0.1
1.5 0.75 0.1
2 0.75 0.1
2.5 0.75 0.1
3 0.75 0.1
3.5 0.75 0.1
4 0.75 0.1
4.5 0.75 0.1
5 0.75 0.1
0 0.8 0.1
0.5 0.8 0.1
1 0.8 0.1
1.5 0.8 0.1
2 0.8 0.1
2.5 0.8 0.1
3 0.8 0.1
3.5 0.8 0.1
4 0.8 0.1
4.5 0.8 0.1
5 0.8 0.1
0 0.85 0.1
0.5 0.85 0.1
1 0.85 0.1
1.5 0.85 0.1
2 0.85 0.1
2.5 0.85 0.1
3 0.85 0.1
3.5 0.85 0.1
4 0.85 0.1
4.5 0.85 0.1
5 0.85 0.1
0 0.9 0.1
0.5 0.9 0.1
1 0.9 0.1
1.5 0.9 0.1
2 0.9 0.1
2.5 0.9 0.1
3 0.9 0.1
3.5 0.9 0.1
4 0.9 0.1
4.5 0.9 0.1
5 0.9 0.1
0 0.95 0.1
0.5 0.95 0.1
1 0.95 0.1
1.5 0.95 0.1
2 0.95 0.1
2.5 0.95 0.1
3 0.95 0.1
3.5 0.95 0.1
4 0.95 0.1
4.5 0.95 0.1
5 0.95 0.1
0 1 0.1
0.5 1 0.1
1 1 0.1
1.5 1 0.1
2 1 0.1
2.5 1 0.1
3 1 0.1
3.5 1 0.1
4 1 0.1
4.5 1 0.1
5 1 0.1
0 0 0.2
0.5 0 0.2
1 0 0.2
1.5 0 0.2
2 0 0.2
2.5 0 0.2
3 0 0.2
3.5 0 0.2
4 0 0.2
4.5 0 0.2
5 0 0.2
0 0.05 0.2
0.5 0.05 0.2
1 0.05 0.2
1.5 0.05 0.2
2 0.05 0.2
2.5 0.05 0.2
3 0.05 0.2
3.5 0.05 0.2
4 0.05 0.2
4.5 0.05 0.2
5 0.05 0.2
0 0.1 0.2
0.5 0.1 0.2
1 0.1 0.2
1.5 0.1 0.2
2 0.1 0.2
2.5 0.1 0.2
3 0.1 0.2
3.5 0.1 0.2
4 0.1 0.2
4.5 0.1 0.2
5 0.1 0.2
0 0.15 0.2
0.5 0.15 0.2
1 0.15 0.2
1.5 0.15 0.2
2 0.15 0.2
2.5 0.15 0.2
3 0.15 0.2
3.5 0.15 0.2
4 0.15 0.2
4.5 0.15 0.2
5 0.15 0.2
0 0.2 0.2
0.5 0.2 0.2
1 0.2 0.2
1.5 0.2 0.2
2 0.2 0.2
2.5 0.2 0.2
3 0.2 0.2
3.5 0.2 0.2
4 0.2 0.2
4.5 0.2 0.2
5 0.2 0.2
0 0.25 0.2
0.5 0.25 0.2
1 0.25 0.2
1.5 0.25 0.2
2 0.25 0.2
2.5 0.25 0.2
3 0.25 0.2
3.5 0.25 0.2
4 0.25 0.2
4.5 0.25 0.2
5 0.25 0.2
0 0.3 0.2
0.5 0.3 0.2
1 0.3 0.2
1.5 0.3 0.2
2 0.3 0.2
2.5 0.3 0.2
3 0.3 0.2
3.5 0.3 0.2
4 0.3 0.2
4.5 0.3 0.2
5 0.3 0.2
0 0.35 0.2
0.5 0.35 0.2
1 0.35 0.2
1.5 0.35 0.2
2 0.35 0.2
2.5 0.35 0.2
3 0.35 0.2
3.5 0.35 0.2
4 0.35 0.2
4.5 0.35 0.2
5 0.35 0.2
0 0.4 0.2
0.5 0.4 0.2
1 0.4 0.2
1.5 0.4 0.2
2 0.4 0.2
2.5 0.4 0.2
3 0.4 0.2
3.5 0.4 0.2
4 0.4 0.2
4.5 0.4 0.2
5 0.4 0.2
0 0.45 0.2
0.5 0.45 0.2
1 0.45 0.2
1.5 0.45 0.2
2 0.45 0.2
2.5 0.45 0.2
3 0.45 0.2
3.5 0.45 0.2
4 0.45 0.2
4.5 0.45 0.2
5 0.45 0.2
0 0.5 0.2
0.5 0.5 0.2
1 0.5 0.2
1.5 0.5 0.2
2 0.5 0.2
2.5 0.5 0.2
3 0.5 0.2
3.5 0.5 0.2
4 0.5 0.2
4.5 0.5 0.2
5 0.5 0.2
0 0.55 0.2
0.5 0.55 0.2
1 0.55 0.2
1.5 0.55 0.2
2 0.55 0.2
2.5 0.55 0.2
3 0.55 0.2
3.5 0.55 0.2
4 0.55 0.2
4.5 0.55 0.2
5 0.55 0.2
0 0.6 0.2
0.5 0.6 0.2
1 0.6 0.2
1.5 0.6 0.2
2 0.6 0.2
2.5 0.6 0.2
3 0.6 0.2
3.5 0.6 0.2
4 0.6 0.2
4.5 0.6 0.2
5 0.6 0.2
0 0.65 0.2
0.5 0.65 0.2
1 0.65 0.2
1.5 0.65 0.2
2 0.65 0.2
2.5 0.65 0.2
3 0.65 0.2
3.5 0.65 0.2
4 0.65 0.2
4.5 0.65 0.2
5 0.65 0.2
0 0.7 0.2
0.5 0.7 0.2
1 0.7 0.2
1.5 0.7 0.2
2 0.7 0.2
2.5 0.7 0.2
3 0.7 0.2
3.5 0.7 0.2
4 0.7 0.2
4.5 0.7 0.2
5 0.7 0.2
0 0.75 0.2
0.5 0.75 0.2
1 0.75 0.2
1.5 0.75 0.2
2 0.75 0.2
2.5 0.75 0.2
3 0.75 0.2
3.5 0.75 0.2
4 0.75 0.2
4.5 0.75 0.2
5 0.75 0.2
0 0.8 0.2
0.5 0.8 0.2
1 0.8 0.2
1.5 0.8 0.2
2 0.8 0.2
2.5 0.8 0.2
3 0.8 0.2
3.5 0.8 0.2
4 0.8 0.2
4.5 0.8 0.2
5 0.8 0.2
0 0.85 0.2
0.5 0.85 0.2
1 0.85 0.2
1.5 0.85 0.2
2 0.85 0.2
2.5 0.85 0.2
3 0.85 0.2
3.5 0.85 0.2
4 0.85 0.2
4.5 0.85 0.2
5 0.85 0.2
0 0.9 0.2
0.5 0.9 0.2
1 0.9 0.2
1.5 0.9 0.2
2 0.9 0.2
2.5 0.9 0.2
3 0.9 0.2
3.5 0.9 0.2
4 0.9 0.2
4.5 0.9 0.2
5 0.9 0.2
0 0.95 0.2
0.5 0.95 0.2
1 0.95 0.2
1.5 0.95 0.2
2 0.95 0.2
2.5 0.95 0.2
3 0.95 0.2
3.5 0.95 0.2
4 0.95 0.2
4.5 0.95 0.2
5 0.95 0.2
0 1 0.2
0.5 1 0.2
1 1 0.2
1.5 1 0.2
2 1 0.2
2.5 1 0.2
3 1 0.2
3.5 1 0.2
4 1 0.2
4.5 1 0.2
5 1 0.2
0 0 0.3
0.5 0 0.3
1 0 0.3
1.5 0 0.3
2 0 0.3
2.5 0 0.3
3 0 0.3
3.5 0 0.3
4 0 0.3
4.5 0 0.3
5 0 0.3
0 0.05 0.3
0.5 0.05 0.3
1 0.05 0.3
1.5 0.05 0.3
2 0.05 0.3
2.5 0.05 0.3
3 0.05 0.3
3.5 0.05 0.3
4 0.05 0.3
4.5 0.05 0.3
5 0.05 0.3
0 0.1 0.3
0.5 0.1 0.3
1 0.1 0.3
1.5 0.1 0.3
2 0.1 0.3
2.5 0.1 0.3
3 0.1 0.3
3.5 0.1 0.3
4 0.1 0.3
4.5 0.1 0.3
5 0.1 0.3
0 0.15 0.3
0.5 0.15 0.3
1 0.15 0.3
1.5 0.15 0.3
2 0.15 0.3
2.5 0.15 0.3
3 0.15 0.3
3.5 0.15 0.3
4 0.15 0.3
4.5 0.15 0.3
5 0.15 0.3
0 0.2 0.3
0.5 0.2 0.3
1 0.2 0.3
1.5 0.2 0.3
2 0.2 0.3
2.5 0.2 0.3
3 0.2 0.3
3.5 0.2 0.3
4 0.2 0.3
4.5 0.2 0.3
5 0.2 0.3
0 0.25 0.3
0.5 0.25 0.3
1 0.25 0.3
1.5 0.25 0.3
2 0.25 0.3
2.5 0.25 0.3
3 0.25 0.3
3.5 0.25 0.3
4 0.25 0.3
4.5 0.25 0.3
5 0.25 0.3
0 0.3 0.3
0.5 0.3 0.3
1 0.3 0.3
1.5 0.3 0.3
2 0.3 0.3
2.5 0.3 0.3
3 0.3 0.3
3.5 0.3 0.3
4 0.3 0.3
4.5 0.3 0.3
5 0.3 0.3
0 0.35 0.3
0.5 0.35 0.3
1 0.35 0.3
1.5 0.35 0.3
2 0.35 0.3
2.5 0.35 0.3
3 0.35 0.3
3.5 0.35 0.3
4 0.35 0.3
4.5 0.35 0.3
5 0.35 0.3
0 0.4 0.3
0.5 0.4 0.3
1 0.4 0.3
1.5 0.4 0.3
2 0.4 0.3
2.5 0.4 0.3
3 0.4 0.3
3.5 0.4 0.3
4 0.4 0.3
4.5 0.4 0.3
5 0.4 0.3
0 0.45 0.3
0.5 0.45 0.3
1 0.45 0.3
1.5 0.45 0.3
2 0.45 0.3
2.5 0.45 0.3
3 0.45 0.3
3.5 0.45 0.3
4 0.45 0.3
4.5 0.45 0.3
5 0.45 0.3
0 0.5 0.3
0.5 0.5 0.3
1 0.5 0.3
1.5 0.5 0.3
2 0.5 0.3
2.5 0.5 0.3
3 0.5 0.3
3.5 0.5 0.3
4 0.5 0.3
4.5 0.5 0.3
5 0.5 0.3
0 0.55 0.3
0.5 0.55 0.3
1 0.55 0.3
1.5 0.55 0.3
2 0.55 0.3
2.5 0.55 0.3
3 0.55 0.3
3.5 0.55 0.3
4 0.55 0.3
4.5 0.55 0.3
5 0.55 0.3
0 0.6 0.3
0.5 0.6 0.3
1 0.6 0.3
1.5 0.6 0.3
2 0.6 0.3
2.5 0.6 0.3
3 0.6 0.3
3.5 0.6 0.3
4 0.6 0.3
4.5 0.6 0.3
5 0.6 0.3
0 0.65 0.3
0.5 0.65 0.3
1 0.65 0.3
1.5 0.65 0.3
2 0.65 0.3
2.5 0.65 0.3
3 0.65 0.3
3.5 0.65 0.3
4 0.65 0.3
4.5 0.65 0.3
5 0.65 0.3
0 0.7 0.3
0.5 0.7 0.3
1 0.7 0.3
1.5 0.7 0.3
2 0.7 0.3
2.5 0.7 0.3
3 0.7 0.3
3.5 0.7 0.3
4 0.7 0.3
4.5 0.7 0.3
5 0.7 0.3
0 0.75 0.3
0.5 0.75 0.3
1 0.75 0.3
1.5 0.75 0.3
2 0.75 0.3
2.5 0.75 0.3
3 0.75 0.3
3.5 0.75 0.3
4 0.75 0.3
4.5 0.75 0.3
5 0.75 0.3
0 0.8 0.3
0.5 0.8 0.3
1 0.8 0.3
1.5 0.8 0.3
2 0.8 0.3
2.5 0.8 0.3
3 0.8 0.3
3.5 0.8 0.3
4 0.8 0.3
4.5 0.8 0.3
5 0.8 0.3
0 0.85 0.3
0.5 0.85 0.3
1 0.85 0.3
1.5 0.85 0.3
2 0.85 0.3
2.5 0.85 0.3
3 0.85 0.3
3.5 0.85 0.3
4 0.85 0.3
4.5 0.85 0.3
5 0.85 0.3
0 0.9 0.3
0.5 0.9 0.3
1 0.9 0.3
1.5 0.9 0.3
2 0.9 0.3
2.5 0.9 0.3
3 0.9 0.3
3.5 0.9 0.3
4 0.9 0.3
4.5 0.9 0.3
5 0.9 0.3
0 0.95 0.3
0.5 0.95 0.3
1 0.95 0.3
1.5 0.95 0.3
2 0.95 0.3
2.5 0.95 0.3
3 0.95 0.3
3.5 0.95 0.3
4 0.95 0.3
4.5 0.95 0.3
5 0.95 0.3
0 1 0.3
0.5 1 0.3
1 1 0.3
1.5 1 0.3
2 1 0.3
2.5 1 0.3
3 1 0.3
3.5 1 0.3
4 1 0.3
4.5 1 0.3
5 1 0.3
0 0 0.4
[...]
CELL_DATA 2000
SCALARS pressure float 1
LOOKUP_TABLE default
0
0
0.842629
0.910899
0.744696
0.597182
0.45556
0.31551
0.175203
0.0232961
0
0
0.839437
0.904299
0.7441
0.597055
0.455531
0.315506
0.175187
0.0250683
0
0
0.809593
0.900492
0.743166
0.596851
0.455483
0.315499
0.175242
0.0269916
0
0
0.795939
0.891723
0.741938
0.596578
0.455418
0.31549
0.17534
0.0286738
1.21477
1.35394
0.7975
0.883119
0.740439
0.596251
0.45534
0.315479
0.175452
0.0300372
1.21321
1.35488
0.811666
0.874932
0.738786
0.595882
0.45525
0.315466
0.175562
0.0311164
1.20813
1.35437
0.830857
0.868121
0.73709
0.595485
0.455152
0.31545
0.17566
0.0319435
1.20019
1.35162
0.855698
0.862948
0.735434
0.595072
0.455047
0.315431
0.175737
0.0325428
1.19178
1.34667
0.881291
0.859359
0.733886
0.594653
0.454937
0.315408
0.175789
0.0329323
1.18446
1.34063
0.905053
0.856987
0.732477
0.594236
0.454825
0.315381
0.175812
0.0331235
1.1788
1.33434
0.92638
0.855512
0.731209
0.59383
0.454712
0.315352
0.175804
0.0331222
1.17513
1.32835
0.945095
0.854677
0.730076
0.59344
0.454602
0.315319
0.175767
0.0329284
1.17381
1.32303
0.961164
0.854264
0.729068
0.593073
0.454496
0.315286
0.175701
0.0325363
1.17487
1.31857
0.974641
0.854093
0.728175
0.592731
0.454395
0.315251
0.17561
0.0319345
1.1782
1.31501
0.98562
0.854018
0.727382
0.592418
0.454302
0.315217
0.1755
0.0311053
1.18365
1.31231
0.994214
0.85392
0.726677
0.592138
0.454219
0.315186
0.175378
0.030024
1.19077
1.31036
1.00055
0.853714
0.726052
0.591892
0.454146
0.315158
0.175257
0.0286588
1.19801
1.3089
1.00478
0.853354
0.725504
0.591685
0.454085
0.315134
0.175151
0.0269752
1.20282
1.30795
1.00711
0.852883
0.725061
0.591527
0.454041
0.315118
0.17509
0.0250507
1.20436
1.30762
1.00746
0.85234
0.724752
0.591427
0.454013
0.315108
0.175102
0.023278
0
0
0.851357
0.909883
0.744859
0.597172
0.455556
0.315521
0.175365
0.0269729
0
0
0.846103
0.903669
0.743968
0.597012
0.455521
0.315513
0.175265
0.0298756
0
0
0.816508
0.899775
0.742933
0.596788
0.455469
0.315503
0.17537
0.0321513
0
0
0.819428
0.893393
0.74162
0.596511
0.455404
0.315495
0.175503
0.03385
1.20274
1.34925
0.777245
0.883882
0.740104
0.596188
0.455327
0.315486
0.175633
0.0352248
1.2008
1.36621
0.783903
0.873481
0.738444
0.595829
0.45524
0.315474
0.175755
0.0363144
1.19702
1.36656
0.810315
0.865738
0.73677
0.595444
0.455144
0.315459
0.175859
0.0371499
1.19193
1.3596
0.839786
0.860829
0.735182
0.595042
0.455041
0.315441
0.17594
0.0377556
1.18626
1.35065
0.868766
0.857678
0.733712
0.594634
0.454934
0.315419
0.175994
0.0381492
1.18079
1.34112
0.895908
0.855686
0.732365
0.594228
0.454825
0.315393
0.176018
0.0383425
1.1766
1.33187
0.919893
0.854551
0.731148
0.593832
0.454715
0.315364
0.17601
0.0383412
1.17376
1.32378
0.940549
0.854002
0.730059
0.593453
0.454607
0.315332
0.175972
0.0381454
1.17227
1.31736
0.958071
0.853821
0.72909
0.593095
0.454503
0.315299
0.175904
0.0377493
1.17216
1.31277
0.97265
0.853836
0.72823
0.592762
0.454405
0.315264
0.17581
0.0371413
1.17379
1.3098
0.984442
0.853908
0.727466
0.592457
0.454314
0.31523
0.175693
0.0363035
1.17725
1.308
0.993585
0.853928
0.726786
0.592184
0.454232
0.315198
0.175561
0.0352119
1.18159
1.30676
1.00024
0.85382
0.726181
0.591943
0.45416
0.315169
0.17542
0.0338354
1.18612
1.30572
1.00456
0.853526
0.725649
0.591739
0.4541
0.315145
0.17528
0.0321353
1.18998
1.30525
1.0069
0.853021
0.725177
0.591569
0.454052
0.31513
0.175168
0.0298585
1.19265
1.30641
1.0072
0.852329
0.724802
0.591449
0.45402
0.315122
0.175265
0.026955
0
0
0.861737
0.911726
0.745173
0.597168
0.455549
0.315542
0.175643
0.029996
0
0
0.855895
0.906217
0.744218
0.596994
0.455512
0.315534
0.175555
0.0331627
0
0
0.830191
0.903166
0.743167
0.596756
0.455457
0.315525
0.17569
0.0356214
0
0
0.835194
0.898132
0.741901
0.59648
0.455393
0.315519
0.175847
0.0374074
1.18968
1.33865
0.771454
0.888882
0.740428
0.596161
0.455317
0.315511
0.175996
0.0388322
1.18792
1.37165
0.755484
0.876752
0.738749
0.595804
0.455231
0.315501
0.176129
0.0399548
1.18738
1.38269
0.777646
0.866309
0.736961
0.595421
0.455137
0.315488
0.176242
0.0408117
1.19027
1.37671
0.815238
0.859296
0.73522
0.595023
0.455037
0.315471
0.176329
0.041431
1.19524
1.36069
0.851394
0.855407
0.733642
0.594619
0.454932
0.31545
0.176386
0.0418328
1.2002
1.34221
0.882827
0.85356
0.732263
0.59422
0.454825
0.315426
0.176411
0.0420299
1.20372
1.32588
0.910284
0.852832
0.731058
0.593832
0.454718
0.315397
0.176404
0.0420287
1.20468
1.31337
0.933943
0.852709
0.729998
0.593461
0.454613
0.315366
0.176364
0.0418291
1.20306
1.30487
0.953913
0.852903
0.729063
0.593112
0.454512
0.315332
0.176293
0.0414249
1.19881
1.30016
0.970451
0.853234
0.728238
0.592788
0.454416
0.315298
0.176194
0.0408034
1.19231
1.29881
0.983762
0.853573
0.727506
0.592491
0.454327
0.315263
0.176069
0.0399443
1.18504
1.29985
0.993831
0.853813
0.726857
0.592225
0.454246
0.31523
0.175924
0.0388198
1.17885
1.30164
1.00073
0.853863
0.726283
0.591991
0.454176
0.315199
0.175766
0.0373932
1.17594
1.30286
1.0049
0.853645
0.725766
0.591789
0.454116
0.315174
0.175601
0.0356059
1.17701
1.30379
1.00715
0.853141
0.725282
0.591612
0.454066
0.315157
0.17546
0.0331458
1.17961
1.30585
1.00754
0.852418
0.724883
0.591484
0.454032
0.315148
0.175544
0.0299784
0
0
0.867646
0.91395
0.745485
0.597175
0.455546
0.315564
0.175893
0.0319221
0
0
0.862377
0.908714
0.744528
0.596998
0.455508
0.315556
0.175811
0.0351463
0
0
0.837225
0.906245
0.743501
0.596759
0.455453
0.315549
0.175956
0.0376604
0
0
0.839587
0.901813
0.74229
0.596487
0.455389
0.315544
0.176125
0.0394881
1.18288
1.34122
0.771701
0.892797
0.740871
0.596174
0.455314
0.315538
0.176283
0.0409437
1.18238
1.37779
0.744203
0.880253
0.739216
0.595823
0.45523
0.315529
0.176425
0.0420887
1.18572
1.39344
0.751856
0.868197
0.737372
0.595441
0.455137
0.315517
0.176543
0.0429619
1.19682
1.38944
0.784746
0.859092
0.735493
0.595039
0.455037
0.315501
0.176634
0.0435924
1.21448
1.37009
0.827758
0.853854
0.733751
0.594631
0.454934
0.315481
0.176694
0.044001
1.23346
1.34417
0.867679
0.851536
0.732239
0.594227
0.454828
0.315457
0.176721
0.0442013
1.24786
1.3191
0.900539
0.850839
0.730956
0.593836
0.454722
0.315429
0.176714
0.0442001
1.25442
1.29959
0.927756
0.850976
0.729866
0.593465
0.454619
0.315398
0.176673
0.0439974
1.2527
1.28781
0.9507
0.851525
0.728928
0.593117
0.454518
0.315365
0.176599
0.0435864
1.24255
1.28361
0.969442
0.852247
0.728122
0.592795
0.454423
0.315329
0.176496
0.0429536
1.22474
1.28513
0.983787
0.852955
0.727431
0.592504
0.454336
0.315294
0.176365
0.0420784
1.20324
1.28976
0.994089
0.853486
0.726831
0.592243
0.454256
0.31526
0.176213
0.0409315
1.18456
1.29531
1.00103
0.853722
0.726294
0.592014
0.454186
0.315229
0.176045
0.0394742
1.17376
1.29988
1.00523
0.853598
0.725796
0.591814
0.454127
0.315202
0.175869
0.0376451
1.17118
1.30273
1.00747
0.853135
0.725319
0.591636
0.454076
0.315183
0.175717
0.0351298
1.17259
1.30557
1.00795
0.852433
0.72492
0.591507
0.454042
0.315173
0.175795
0.0319047
0
0
0.869595
0.915242
0.745675
0.597182
0.455545
0.315577
0.176035
0.0328486
0
0
0.864322
0.910119
0.744722
0.597005
0.455507
0.31557
0.175954
0.0360869
0
0
0.838767
0.907903
0.74371
0.596767
0.455452
0.315564
0.176103
0.0386196
0
0
0.840168
0.903727
0.742526
0.596496
0.455388
0.31556
0.176276
0.040464
1.1805
1.34503
0.771163
0.894803
0.741134
0.596186
0.455314
0.315554
0.176438
0.0419331
1.18091
1.38254
0.741282
0.882129
0.739497
0.595838
0.45523
0.315546
0.176583
0.0430887
1.18725
1.39877
0.743933
0.869715
0.737648
0.59546
0.455138
0.315535
0.176705
0.0439698
1.20414
1.39478
0.76975
0.859816
0.735725
0.59506
0.455039
0.315519
0.176798
0.0446059
1.22958
1.37435
0.809005
0.853345
0.733887
0.594647
0.454936
0.3155
0.176859
0.0450182
1.25712
1.34528
0.852404
0.850094
0.732254
0.594235
0.454831
0.315476
0.176886
0.0452204
1.27919
1.31582
0.892451
0.849172
0.730871
0.593836
0.454725
0.315448
0.176879
0.0452192
1.28972
1.2919
0.925317
0.849553
0.729725
0.593459
0.454621
0.315417
0.176838
0.0450146
1.28771
1.27751
0.950622
0.850503
0.728785
0.59311
0.454521
0.315383
0.176763
0.0446
1.27317
1.27315
0.96966
0.851581
0.728013
0.592793
0.454427
0.315348
0.176657
0.0439617
1.24761
1.27619
0.983854
0.852545
0.727363
0.592506
0.45434
0.315312
0.176524
0.0430785
1.21769
1.28332
0.994166
0.853249
0.726796
0.592249
0.454261
0.315278
0.176368
0.041921
1.1914
1.29141
1.00117
0.853594
0.72628
0.592022
0.454191
0.315246
0.176197
0.0404503
1.17496
1.29801
1.0054
0.853532
0.725795
0.591824
0.454132
0.315218
0.176016
0.0386044
1.16953
1.30212
1.00766
0.8531
0.725325
0.591647
0.454081
0.315199
0.17586
0.0360705
1.17007
1.30545
1.0082
0.852416
0.724929
0.591518
0.454047
0.315188
0.175937
0.0328313
0
0
0.869595
0.915242
0.745675
0.597182
0.455545
0.315577
0.176035
0.0328486
0
0
0.864322
0.910119
0.744722
0.597005
0.455507
0.31557
0.175954
0.0360869
0
0
0.838767
0.907903
0.74371
0.596767
0.455452
0.315564
0.176103
0.0386196
0
0
0.840168
0.903727
0.742526
0.596496
0.455388
0.31556
0.176276
0.040464
1.1805
1.34503
0.771163
0.894803
0.741134
0.596186
0.455314
0.315554
0.176438
0.0419331
1.18091
1.38254
0.741282
0.882129
0.739497
0.595838
0.45523
0.315546
0.176583
0.0430887
1.18725
1.39877
0.743933
0.869715
0.737648
0.59546
0.455138
0.315535
0.176705
0.0439698
1.20414
1.39478
0.76975
0.859816
0.735725
0.59506
0.455039
0.315519
0.176798
0.0446059
1.22958
1.37435
0.809005
0.853345
0.733887
0.594647
0.454936
0.3155
0.176859
0.0450182
1.25712
1.34528
0.852404
0.850094
0.732254
0.594235
0.454831
0.315476
0.176886
0.0452204
1.27919
1.31582
0.892451
0.849172
0.730871
0.593836
0.454725
0.315448
0.176879
0.0452192
1.28972
1.2919
0.925317
0.849553
0.729725
0.593459
0.454621
0.315417
0.176838
0.0450146
1.28771
1.27751
0.950622
0.850503
0.728785
0.59311
0.454521
0.315383
0.176763
0.0446
1.27317
1.27315
0.96966
0.851581
0.728013
0.592793
0.454427
0.315348
0.176657
0.0439617
1.24761
1.27619
0.983854
0.852545
0.727363
0.592506
0.45434
0.315312
0.176524
0.0430785
1.21769
1.28332
0.994166
0.853249
0.726796
0.592249
0.454261
0.315278
0.176368
0.041921
1.1914
1.29141
1.00117
0.853594
0.72628
0.592022
0.454191
0.315246
0.176197
0.0404503
1.17496
1.29801
1.0054
0.853532
0.725795
0.591824
0.454132
0.315218
0.176016
0.0386044
1.16953
1.30212
1.00766
0.8531
0.725325
0.591647
0.454081
0.315199
0.17586
0.0360705
1.17007
1.30545
1.0082
0.852416
0.724929
0.591518
0.454047
0.315188
0.175937
0.0328313
0
0
0.867646
0.91395
0.745485
0.597175
0.455546
0.315564
0.175893
0.0319221
0
0
0.862377
0.908714
0.744528
0.596998
0.455508
0.315556
0.175811
0.0351463
0
0
0.837225
0.906245
0.743501
0.596759
0.455453
0.315549
0.175956
0.0376604
0
0
0.839587
0.901813
0.74229
0.596487
0.455389
0.315544
0.176125
0.0394881
1.18288
1.34122
0.771701
0.892797
0.740871
0.596174
0.455314
0.315538
0.176283
0.0409437
1.18238
1.37779
0.744203
0.880253
0.739216
0.595823
0.45523
0.315529
0.176425
0.0420887
1.18572
1.39344
0.751856
0.868197
0.737372
0.595441
0.455137
0.315517
0.176543
0.0429619
1.19682
1.38944
0.784746
0.859092
0.735493
0.595039
0.455037
0.315501
0.176634
0.0435924
1.21448
1.37009
0.827758
0.853854
0.733751
0.594631
0.454934
0.315481
0.176694
0.044001
1.23346
1.34417
0.867679
0.851536
0.732239
0.594227
0.454828
0.315457
0.176721
0.0442013
1.24786
1.3191
0.900539
0.850839
0.730956
0.593836
0.454722
0.315429
0.176714
0.0442001
1.25442
1.29959
0.927756
0.850976
0.729866
0.593465
0.454619
0.315398
0.176673
0.0439974
1.2527
1.28781
0.9507
0.851525
0.728928
0.593117
0.454518
0.315365
0.176599
0.0435864
1.24255
1.28361
0.969442
0.852247
0.728122
0.592795
0.454423
0.315329
0.176496
0.0429536
1.22474
1.28513
0.983787
0.852955
0.727431
0.592504
0.454336
0.315294
0.176365
0.0420784
1.20324
1.28976
0.994089
0.853486
0.726831
0.592243
0.454256
0.31526
0.176213
0.0409315
1.18456
1.29531
1.00103
0.853722
0.726294
0.592014
0.454186
0.315229
0.176045
0.0394742
1.17376
1.29988
1.00523
0.853598
0.725796
0.591814
0.454127
0.315202
0.175869
0.0376451
1.17118
1.30273
1.00747
0.853135
0.725319
0.591636
0.454076
0.315183
0.175717
0.0351298
1.17259
1.30557
1.00795
0.852433
0.72492
0.591507
0.454042
0.315173
0.175795
0.0319047
0
0
0.861737
0.911726
0.745173
0.597168
0.455549
0.315542
0.175643
0.029996
0
0
0.855895
0.906217
0.744218
0.596994
0.455512
0.315534
0.175555
0.0331627
0
0
0.830191
0.903166
0.743167
0.596756
0.455457
0.315525
0.17569
0.0356214
0
0
0.835194
0.898132
0.741901
0.59648
0.455393
0.315519
0.175847
0.0374074
1.18968
1.33865
0.771454
0.888882
0.740428
0.596161
0.455317
0.315511
0.175996
0.0388322
1.18792
1.37165
0.755484
0.876752
0.738749
0.595804
0.455231
0.315501
0.176129
0.0399548
1.18738
1.38269
0.777646
0.866309
0.736961
0.595421
0.455137
0.315488
0.176242
0.0408117
1.19027
1.37671
0.815238
0.859296
0.73522
0.595023
0.455037
0.315471
0.176329
0.041431
1.19524
1.36069
0.851394
0.855407
0.733642
0.594619
0.454932
0.31545
0.176386
0.0418328
1.2002
1.34221
0.882827
0.85356
0.732263
0.59422
0.454825
0.315426
0.176411
0.0420299
1.20372
1.32588
0.910284
0.852832
0.731058
0.593832
0.454718
0.315397
0.176404
0.0420287
1.20468
1.31337
0.933943
0.852709
0.729998
0.593461
0.454613
0.315366
0.176364
0.0418291
1.20306
1.30487
0.953913
0.852903
0.729063
0.593112
0.454512
0.315332
0.176293
0.0414249
1.19881
1.30016
0.970451
0.853234
0.728238
0.592788
0.454416
0.315298
0.176194
0.0408034
1.19231
1.29881
0.983762
0.853573
0.727506
0.592491
0.454327
0.315263
0.176069
0.0399443
1.18504
1.29985
0.993831
0.853813
0.726857
0.592225
0.454246
0.31523
0.175924
0.0388198
1.17885
1.30164
1.00073
0.853863
0.726283
0.591991
0.454176
0.315199
0.175766
0.0373932
1.17594
1.30286
1.0049
0.853645
0.725766
0.591789
0.454116
0.315174
0.175601
0.0356059
1.17701
1.30379
1.00715
0.853141
0.725282
0.591612
0.454066
0.315157
0.17546
0.0331458
1.17961
1.30585
1.00754
0.852418
0.724883
0.591484
0.454032
0.315148
0.175544
0.0299784
0
0
0.851357
0.909883
0.744859
0.597172
0.455556
0.315521
0.175365
0.0269729
0
0
0.846103
0.903669
0.743968
0.597012
0.455521
0.315513
0.175265
0.0298756
0
0
0.816508
0.899775
0.742933
0.596788
0.455469
0.315503
0.17537
0.0321513
0
0
0.819428
0.893393
0.74162
0.596511
0.455404
0.315495
0.175503
0.03385
1.20274
1.34925
0.777245
0.883882
0.740104
0.596188
0.455327
0.315486
0.175633
0.0352248
1.2008
1.36621
0.783903
0.873481
0.738444
0.595829
0.45524
0.315474
0.175755
0.0363144
1.19702
1.36656
0.810315
0.865738
0.73677
0.595444
0.455144
0.315459
0.175859
0.0371499
1.19193
1.3596
0.839786
0.860829
0.735182
0.595042
0.455041
0.315441
0.17594
0.0377556
1.18626
1.35065
0.868766
0.857678
0.733712
0.594634
0.454934
0.315419
0.175994
0.0381492
1.18079
1.34112
0.895908
0.855686
0.732365
0.594228
0.454825
0.315393
0.176018
0.0383425
1.1766
1.33187
0.919893
0.854551
0.731148
0.593832
0.454715
0.315364
0.17601
0.0383412
1.17376
1.32378
0.940549
0.854002
0.730059
0.593453
0.454607
0.315332
0.175972
0.0381454
1.17227
1.31736
0.958071
0.853821
0.72909
0.593095
0.454503
0.315299
0.175904
0.0377493
1.17216
1.31277
0.97265
0.853836
0.72823
0.592762
0.454405
0.315264
0.17581
0.0371413
1.17379
1.3098
0.984442
0.853908
0.727466
0.592457
0.454314
0.31523
0.175693
0.0363035
1.17725
1.308
0.993585
0.853928
0.726786
0.592184
0.454232
0.315198
0.175561
0.0352119
1.18159
1.30676
1.00024
0.85382
0.726181
0.591943
0.45416
0.315169
0.17542
0.0338354
1.18612
1.30572
1.00456
0.853526
0.725649
0.591739
0.4541
0.315145
0.17528
0.0321353
1.18998
1.30525
1.0069
0.853021
0.725177
0.591569
0.454052
0.31513
0.175168
0.0298585
1.19265
1.30641
1.0072
0.852329
0.724802
0.591449
0.45402
0.315122
0.175265
0.026955
0
0
0.842629
0.910899
0.744696
0.597182
0.45556
0.31551
0.175203
0.0232961
0
0
0.839437
0.904299
0.7441
0.597055
0.455531
0.315506
0.175187
0.0250683
0
0
0.809593
0.900492
0.743166
0.596851
0.455483
0.315499
0.175242
0.0269916
0
0
0.795939
0.891723
0.741938
0.596578
0.455418
0.31549
0.17534
0.0286738
1.21477
1.35394
0.7975
0.883119
0.740439
0.596251
0.45534
0.315479
0.175452
0.0300372
1.21321
1.35488
0.811666
0.874932
0.738786
0.595882
0.45525
0.315466
0.175562
0.0311164
1.20813
1.35437
0.830857
0.868121
0.73709
0.595485
0.455152
0.31545
0.17566
0.0319435
1.20019
1.35162
0.855698
0.862948
0.735434
0.595072
0.455047
0.315431
0.175737
0.0325428
1.19178
1.34667
0.881291
0.859359
0.733886
0.594653
0.454937
0.315408
0.175789
0.0329323
1.18446
1.34063
0.905053
0.856987
0.732477
0.594236
0.454825
0.315381
0.175812
0.0331235
1.1788
1.33434
0.92638
0.855512
0.731209
0.59383
0.454712
0.315352
0.175804
0.0331222
1.17513
1.32835
0.945095
0.854677
0.730076
0.59344
0.454602
0.315319
0.175767
0.0329284
1.17381
1.32303
0.961164
0.854264
0.729068
0.593073
0.454496
0.315286
0.175701
0.0325363
1.17487
1.31857
0.974641
0.854093
0.728175
0.592731
0.454395
0.315251
0.17561
0.0319345
1.1782
1.31501
0.98562
0.854018
0.727382
0.592418
0.454302
0.315217
0.1755
0.0311053
1.18365
1.31231
0.994214
0.85392
0.726677
0.592138
0.454219
0.315186
0.175378
0.030024
1.19077
1.31036
1.00055
0.853714
0.726052
0.591892
0.454146
0.315158
0.175257
0.0286588
1.19801
1.3089
1.00478
0.853354
0.725504
0.591685
0.454085
0.315134
0.175151
0.0269752
1.20282
1.30795
1.00711
0.852883
0.725061
0.591527
0.454041
0.315118
0.17509
0.0250507
1.20436
1.30762
1.00746
0.85234
0.724752
0.591427
0.454013
0.315108
0.175102
0.023278

VECTORS velocity float
0 0 0
0 0 0
0.66671 -0.0279793 -0.00474201
0.6194 -0.00172605 0.000991398
0.636177 -0.000516206 0.000137863
0.641679 -0.000119927 3.39656e-05
0.642931 -2.627e-05 8.0659e-06
0.643251 -7.99741e-06 -3.62163e-06
0.643492 1.26972e-05 -5.38943e-05
0.674216 -0.0020799 -0.00195662
0 0 0
0 0 0
-0.0730965 -0.0829765 -0.00394917
0.646689 -0.0105311 0.000808476
0.722532 -0.00206092 0.000238023
0.733271 -0.000432921 5.72795e-05
0.735259 -9.32816e-05 1.29243e-05
0.735726 -2.72224e-05 -2.57218e-06
0.736629 -2.87332e-05 -4.7276e-05
0.751733 -0.00430385 -0.00257714
0 0 0
0 0 0
0.692613 -0.141782 -0.00234289
0.694119 -0.0213986 0.000609301
0.737102 -0.00400892 0.000209976
0.746941 -0.000824373 5.78825e-05
0.748999 -0.000177089 1.35886e-05
0.749489 -4.98472e-05 -2.69327e-06
0.750359 -0.000127856 -5.84696e-05
0.76157 -0.00414505 -0.00269946
0 0 0
0 0 0
-0.0590909 -0.203688 -0.000510707
0.668559 -0.0312009 -0.000168932
0.738523 -0.00590924 0.000165536
0.749162 -0.00121577 5.43687e-05
0.751168 -0.000261408 1.29862e-05
0.751634 -7.15814e-05 -3.13791e-06
0.752331 -0.000195771 -6.96707e-05
0.763094 -0.00349232 -0.00273695
0.354569 -0.0146854 -0.0311926
0.69147 0.00870825 -0.0242873
0.693653 -0.236323 0.0114185
0.697765 -0.0414243 0.00121335
0.741007 -0.00772585 0.000228937
0.749681 -0.00158119 5.25686e-05
0.751455 -0.000339806 1.17768e-05
0.751873 -9.05267e-05 -3.76843e-06
0.752413 -0.000224646 -7.52495e-05
0.763403 -0.0028227 -0.00275033
0.443118 -0.0391556 -0.0399974
0.869037 0.0188945 -0.0285731
0.85543 -0.233222 0.0171005
0.726119 -0.0481361 0.00252834
0.743671 -0.00921887 0.000280102
0.75006 -0.00189929 4.80878e-05
0.751544 -0.000408737 1.00483e-05
0.751899 -0.000105685 -4.50825e-06
0.752313 -0.000223816 -7.85922e-05
0.763557 -0.00221532 -0.00275907
0.492806 -0.0529551 -0.0454438
0.903915 0.0192543 -0.026512
0.894348 -0.219046 0.0135484
0.74165 -0.0518743 0.0023498
0.745873 -0.0103584 0.000242261
0.750446 -0.00216023 3.82015e-05
0.751624 -0.000466026 7.83923e-06
0.751909 -0.000116593 -5.28009e-06
0.752221 -0.0002009 -8.06476e-05
0.763668 -0.0016657 -0.00276502
0.532819 -0.0563372 -0.0493818
0.907112 0.0165656 -0.0236011
0.899338 -0.200345 0.00800819
0.751801 -0.0533211 0.0016321
0.747964 -0.0111497 0.000174689
0.750867 -0.00235752 2.6673e-05
0.751712 -0.000510036 5.39648e-06
0.751922 -0.000123109 -6.04084e-06
0.752156 -0.000162028 -8.19245e-05
0.76375 -0.00116047 -0.00276895
0.565354 -0.05146 -0.0524254
0.904504 0.0137542 -0.0214121
0.897737 -0.179674 0.00419423
0.760415 -0.0529128 0.000979085
0.750128 -0.0115909 0.000104613
0.751319 -0.00248626 1.49786e-05
0.751807 -0.000539566 2.85235e-06
0.751937 -0.000125318 -6.76428e-06
0.752114 -0.000112231 -8.27023e-05
0.763804 -0.000686261 -0.00277134
0.590608 -0.0402324 -0.0549372
0.901361 0.0119597 -0.0200721
0.895147 -0.158836 0.00179826
0.767961 -0.0510428 0.000513033