# vtk DataFile Version 2.0
TestTestTest
ASCII

DATASET STRUCTURED_GRID
DIMENSIONS 11 21 11
POINTS 2541 float
0 0 0
0.5 0 0
1 0 0
1.5 0 0
2 0 0
2.5 0 0
3 0 0
3.5 0 0
4 0 0
4.5 0 0
5 0 0
0 0.05 0
0.5 0.05 0
1 0.05 0
1.5 0.05 0
2 0.05 0
2.5 0.05 0
3 0.05 0
3.5 0.05 0
4 0.05 0
4.5 0.05 0
5 0.05 0
0 0.1 0
0.5 0.1 0
1 0.1 0
1.5 0.1 0
2 0.1 0
2.5 0.1 0
3 0.1 0
3.5 0.1 0
4 0.1 0
4.5 0.1 0
5 0.1 0
0 0.15 0
0.5 0.15 0
1 0.15 0
1.5 0.15 0
2 0.15 0
2.5 0.15 0
3 0.15 0
3.5 0.15 0
4 0.15 0
4.5 0.15 0
5 0.15 0
0 0.2 0
0.5 0.2 0
1 0.2 0
1.5 0.2 0
2 0.2 0
2.5 0.2 0
3 0.2 0
3.5 0.2 0
4 0.2 0
4.5 0.2 0
5 0.2 0
0 0.25 0
0.5 0.25 0
1 0.25 0
1.5 0.25 0
2 0.25 0
2.5 0.25 0
3 0.25 0
3.5 0.25 0
4 0.25 0
4.5 0.25 0
5 0.25 0
0 0.3 0
0.5 0.3 0
1 0.3 0
1.5 0.3 0
2 0.3 0
2.5 0.3 0
3 0.3 0
3.5 0.3 0
4 0.3 0
4.5 0.3 0
5 0.3 0
0 0.35 0
0.5 0.35 0
1 0.35 0
1.5 0.35 0
2 0.35 0
2.5 0.35 0
3 0.35 0
3.5 0.35 0
4 0.35 0
4.5 0.35 0
5 0.35 0
0 0.4 0
0.5 0.4 0
1 0.4 0
1.5 0.4 0
2 0.4 0
2.5 0.4 0
3 0.4 0
3.5 0.4 0
4 0.4 0
4.5 0.4 0
5 0.4 0
0 0.45 0
0.5 0.45 0
1 0.45 0
1.5 0.45 0
2 0.45 0
2.5 0.45 0
3 0.45 0
3.5 0.45 0
4 0.45 0
4.5 0.45 0
5 0.45 0
0 0.5 0
0.5 0.5 0
1 0.5 0
1.5 0.5 0
2 0.5 0
2.5 0.5 0
3 0.5 0
3.5 0.5 0
4 0.5 0
4.5 0.5 0
5 0.5 0
0 0.55 0
0.5 0.55 0
1 0.55 0
1.5 0.55 0
2 0.55 0
2.5 0.55 0
3 0.55 0
3.5 0.55 0
4 0.55 0
4.5 0.55 0
5 0.55 0
0 0.6 0
0.5 0.6 0
1 0.6 0
1.5 0.6 0
2 0.6 0
2.5 0.6 0
3 0.6 0
3.5 0.6 0
4 0.6 0
4.5 0.6 0
5 0.6 0
0 0.65 0
0.5 0.65 0
1 0.65 0
1.5 0.65 0
2 0.65 0
2.5 0.65 0
3 0.65 0
3.5 0.65 0
4 0.65 0
4.5 0.65 0
5 0.65 0
0 0.7 0
0.5 0.7 0
1 0.7 0
1.5 0.7 0
2 0.7 0
2.5 0.7 0
3 0.7 0
3.5 0.7 0
4 0.7 0
4.5 0.7 0
5 0.7 0
0 0.75 0
0.5 0.75 0
1 0.75 0
1.5 0.75 0
2 0.75 0
2.5 0.75 0
3 0.75 0
3.5 0.75 0
4 0.75 0
4.5 0.75 0
5 0.75 0
0 0.8 0
0.5 0.8 0
1 0.8 0
1.5 0.8 0
2 0.8 0
2.5 0.8 0
3 0.8 0
3.5 0.8 0
4 0.8 0
4.5 0.8 0
5 0.8 0
0 0.85 0
0.5 0.85 0
1 0.85 0
1.5 0.85 0
2 0.85 0
2.5 0.85 0
3 0.85 0
3.5 0.85 0
4 0.85 0
4.5 0.85 0
5 0.85 0
0 0.9 0
0.5 0.9 0
1 0.9 0
1.5 0.9 0
2 0.9 0
2.5 0.9 0
3 0.9 0
3.5 0.9 0
4 0.9 0
4.5 0.9 0
5 0.9 0
0 0.95 0
0.5 0.95 0
1 0.95 0
1.5 0.95 0
2 0.95 0
2.5 0.95 0
3 0.95 0
3.5 0.95 0
4 0.95 0
4.5 0.95 0
5 0.95 0
0 1 0
0.5 1 0
1 1 0
1.5 1 0
2 1 0
2.5 1 0
3 1 0
3.5 1 0
4 1 0
4.5 1 0
5 1 0
0 0 0.1
0.5 0 0.1
1 0 0.1
1.5 0 0.1
2 0 0.1
2.5 0 0.1
3 0 0.1
3.5 0 0.1
4 0 0.1
4.5 0 0.1
5 0 0.1
0 0.05 0.1
0.5 0.05 0.1
1 0.05 0.1
1.5 0.05 0.1
2 0.05 0.1
2.5 0.05 0.1
3 0.05 0.1
3.5 0.05 0.1
4 0.05 0.1
4.5 0.05 0.1
5 0.05 0.1
0 0.1 0.1
0.5 0.1 0.1
1 0.1 0.1
1.5 0.1 0.1
2 0.1 0.1
2.5 0.1 0.1
3 0.1 0.1
3.5 0.1 0.1
4 0.1 0.1
4.5 0.1 0.1
5 0.1 0.1
0 0.15 0.1
0.5 0.15 0.1
1 0.15 0.1
1.5 0.15 0.1
2 0.15 0.1
2.5 0.15 0.1
3 0.15 0.1
3.5 0.15 0.1
4 0.15 0.1
4.5 0.15 0.1
5 0.15 0.1
0 0.2 0.1
0.5 0.2 0.1
1 0.2 0.1
1.5 0.2 0.1
2 0.2 0.1
2.5 0.2 0.1
3 0.2 0.1
3.5 0.2 0.1
4 0.2 0.1
4.5 0.2 0.1
5 0.2 0.1
0 0.25 0.1
0.5 0.25 0.1
1 0.25 0.1
1.5 0.25 0.1
2 0.25 0.1
2.5 0.25 0.1
3 0.25 0.1
3.5 0.25 0.1
4 0.25 0.1
4.5 0.25 0.1
5 0.25 0.1
0 0.3 0.1
0.5 0.3 0.1
1 0.3 0.1
1.5 0.3 0.1
2 0.3 0.1
2.5 0.3 0.1
3 0.3 0.1
3.5 0.3 0.1
4 0.3 0.1
4.5 0.3 0.1
5 0.3 0.1
0 0.35 0.1
0.5 0.35 0.1
1 0.35 0.1
1.5 0.35 0.1
2 0.35 0.1
2.5 0.35 0.1
3 0.35 0.1
3.5 0.35 0.1
4 0.35 0.1
4.5 0.35 0.1
5 0.35 0.1
0 0.4 0.1
0.5 0.4 0.1
1 0.4 0.1
1.5 0.4 0.1
2 0.4 0.1
2.5 0.4 0.1
3 0.4 0.1
3.5 0.4 0.1
4 0.4 0.1
4.5 0.4 0.1
5 0.4 0.1
0 0.45 0.1
0.5 0.45 0.1
1 0.45 0.1
1.5 0.45 0.1
2 0.45 0.1
2.5 0.45 0.1
3 0.45 0.1
3.5 0.45 0.1
4 0.45 0.1
4.5 0.45 0.1
5 0.45 0.1
0 0.5 0.1
0.5 0.5 0.1
1 0.5 0.1
1.5 0.5 0.1
2 0.5 0.1
2.5 0.5 0.1
3 0.5 0.1
3.5 0.5 0.1
4 0.5 0.1
4.5 0.5 0.1
5 0.5 0.1
0 0.55 0.1
0.5 0.55 0.1
1 0.55 0.1
1.5 0.55 0.1
2 0.55 0.1
2.5 0.55 0.1
3 0.55 0.1
3.5 0.55 0.1
4 0.55 0.1
4.5 0.55 0.1
5 0.55 0.1
0 0.6 0.1
0.5 0.6 0.1
1 0.6 0.1
1.5 0.6 0.1
2 0.6 0.1
2.5 0.6 0.1
3 0.6 0.1
3.5 0.6 0.1
4 0.6 0.1
4.5 0.6 0.1
5 0.6 0.1
0 0.65 0.1
0.5 0.65 0.1
1 0.65 0.1
1.5 0.65 0.1
2 0.65 0.1
2.5 0.65 0.1
3 0.65 0.1
3.5 0.65 0.1
4 0.65 0.1
4.5 0.65 0.1
5 0.65 0.1
0 0.7 0.1
0.5 0.7 0.1
1 0.7 0.1
1.5 0.7 0.1
2 0.7 0.1
2.5 0.7 0.1
3 0.7 0.1
3.5 0.7 0.1
4 0.7 0.1
4.5 0.7 0.1
5 0.7 0.1
0 0.75 0.1
0.5 0.75 0.1
1 0.75 0.1
1.5 0.75 0.1
2 0.75 0.1
2.5 0.75 0.1
3 0.75 0.1
3.5 0.75 0.1
4 0.75 0.1
4.5 0.75 0.1
5 0.75 0.1
0 0.8 0.1
0.5 0.8 0.1
1 0.8 0.1
1.5 0.8 0.1
2 0.8 0.1
2.5 0.8 0.1
3 0.8 0.1
3.5 0.8 0.1
4 0.8 0.1
4.5 0.8 0.1
5 0.8 0.1
0 0.85 0.1
0.5 0.85 0.1
1 0.85 0.1
1.5 0.85 0.1
2 0.85 0.1
2.5 0.85 0.1
3 0.85 0.1
3.5 0.85 0.1
4 0.85 0.1
4.5 0.85 0.1
5 0.85 0.1
0 0.9 0.1
0.5 0.9 0.1
1 0.9 0.1
1.5 0.9 0.1
2 0.9 0.1
2.5 0.9 0.1
3 0.9 0.1
3.5 0.9 0.1
4 0.9 0.1
4.5 0.9 0.1
5 0.9 0.1
0 0.95 0.1
0.5 0.95 0.1
1 0.95 0.1
1.5 0.95 0.1
2 0.95 0.1
2.5 0.95 0.1
3 0.95 0.1
3.5 0.95 0.1
4 0.95 0.1
4.5 0.95 0.1
5 0.95 0.1
0 1 0.1
0.5 1 0.1
1 1 0.1
1.5 1 0.1
2 1 0.1
2.5 1 0.1
3 1 0.1
3.5 1 0.1
4 1 0.1
4.5 1 0.1
5 1 0.1
0 0 0.2
0.5 0 0.2
1 0 0.2
1.5 0 0.2
2 0 0.2
2.5 0 0.2
3 0 0.2
3.5 0 0.2
4 0 0.2
4.5 0 0.2
5 0 0.2
0 0.05 0.2
0.5 0.05 0.2
1 0.05 0.2
1.5 0.05 0.2
2 0.05 0.2
2.5 0.05 0.2
3 0.05 0.2
3.5 0.05 0.2
4 0.05 0.2
4.5 0.05 0.2
5 0.05 0.2
0 0.1 0.2
0.5 0.1 0.2
1 0.1 0.2
1.5 0.1 0.2
2 0.1 0.2
2.5 0.1 0.2
3 0.1 0.2
3.5 0.1 0.2
4 0.1 0.2
4.5 0.1 0.2
5 0.1 0.2
0 0.15 0.2
0.5 0.15 0.2
1 0.15 0.2
1.5 0.15 0.2
2 0.15 0.2
2.5 0.15 0.2
3 0.15 0.2
3.5 0.15 0.2
4 0.15 0.2
4.5 0.15 0.2
5 0.15 0.2
0 0.2 0.2
0.5 0.2 0.2
1 0.2 0.2
1.5 0.2 0.2
2 0.2 0.2
2.5 0.2 0.2
3 0.2 0.2
3.5 0.2 0.2
4 0.2 0.2
4.5 0.2 0.2
5 0.2 0.2
0 0.25 0.2
0.5 0.25 0.2
1 0.25 0.2
1.5 0.25 0.2
2 0.25 0.2
2.5 0.25 0.2
3 0.25 0.2
3.5 0.25 0.2
4 0.25 0.2
4.5 0.25 0.2
5 0.25 0.2
0 0.3 0.2
0.5 0.3 0.2
1 0.3 0.2
1.5 0.3 0.2
2 0.3 0.2
2.5 0.3 0.2
3 0.3 0.2
3.5 0.3 0.2
4 0.3 0.2
4.5 0.3 0.2
5 0.3 0.2
0 0.35 0.2
0.5 0.35 0.2
1 0.35 0.2
1.5 0.35 0.2
2 0.35 0.2
2.5 0.35 0.2
3 0.35 0.2
3.5 0.35 0.2
4 0.35 0.2
4.5 0.35 0.2
5 0.35 0.2
0 0.4 0.2
0.5 0.4 0.2
1 0.4 0.2
1.5 0.4 0.2
2 0.4 0.2
2.5 0.4 0.2
3 0.4 0.2
3.5 0.4 0.2
4 0.4 0.2
4.5 0.4 0.2
5 0.4 0.2
0 0.45 0.2
0.5 0.45 0.2
1 0.45 0.2
1.5 0.45 0.2
2 0.45 0.2
2.5 0.45 0.2
3 0.45 0.2
3.5 0.45 0.2
4 0.45 0.2
4.5 0.45 0.2
5 0.45 0.2
0 0.5 0.2
0.5 0.5 0.2
1 0.5 0.2
1.5 0.5 0.2
2 0.5 0.2
2.5 0.5 0.2
3 0.5 0.2
3.5 0.5 0.2
4 0.5 0.2
4.5 0.5 0.2
5 0.5 0.2
0 0.55 0.2
0.5 0.55 0.2
1 0.55 0.2
1.5 0.55 0.2
2 0.55 0.2
2.5 0.55 0.2
3 0.55 0.2
3.5 0.55 0.2
4 0.55 0.2
4.5 0.55 0.2
5 0.55 0.2
0 0.6 0.2
0.5 0.6 0.2
1 0.6 0.2
1.5 0.6 0.2
2 0.6 0.2
2.5 0.6 0.2
3 0.6 0.2
3.5 0.6 0.2
4 0.6 0.2
4.5 0.6 0.2
5 0.6 0.2
0 0.65 0.2
0.5 0.65 0.2
1 0.65 0.2
1.5 0.65 0.2
2 0.65 0.2
2.5 0.65 0.2
3 0.65 0.2
3.5 0.65 0.2
4 0.65 0.2
4.5 0.65 0.2
5 0.65 0.2
0 0.7 0.2
0.5 0.7 0.2
1 0.7 0.2
1.5 0.7 0.2
2 0.7 0.2
2.5 0.7 0.2
3 0.7 0.2
3.5 0.7 0.2
4 0.7 0.2
4.5 0.7 0.2
5 0.7 0.2
0 0.75 0.2
0.5 0.75 0.2
1 0.75 0.2
1.5 0.75 0.2
2 0.75 0.2
2.5 0.75 0.2
3 0.75 0.2
3.5 0.75 0.2
4 0.75 0.2
4.5 0.75 0.2
5 0.75 0.2
0 0.8 0.2
0.5 0.8 0.2
1 0.8 0.2
1.5 0.8 0.2
2 0.8 0.2
2.5 0.8 0.2
3 0.8 0.2
3.5 0.8 0.2
4 0.8 0.2
4.5 0.8 0.2
5 0.8 0.2
0 0.85 0.2
0.5 0.85 0.2
1 0.85 0.2
1.5 0.85 0.2
2 0.85 0.2
2.5 0.85 0.2
3 0.85 0.2
3.5 0.85 0.2
4 0.85 0.2
4.5 0.85 0.2
5 0.85 0.2
0 0.9 0.2
0.5 0.9 0.2
1 0.9 0.2
1.5 0.9 0.2
2 0.9 0.2
2.5 0.9 0.2
3 0.9 0.2
3.5 0.9 0.2
4 0.9 0.2
4.5 0.9 0.2
5 0.9 0.2
0 0.95 0.2
0.5 0.95 0.2
1 0.95 0.2
1.5 0.95 0.2
2 0.95 0.2
2.5 0.95 0.2
3 0.95 0.2
3.5 0.95 0.2
4 0.95 0.2
4.5 0.95 0.2
5 0.95 0.2
0 1 0.2
0.5 1 0.2
1 1 0.2
1.5 1 0.2
2 1 0.2
2.5 1 0.2
3 1 0.2
3.5 1 0.2
4 1 0.2
4.5 1 0.2
5 1 0.2
0 0 0.3
0.5 0 0.3
1 0 0.3
1.5 0 0.3
2 0 0.3
2.5 0 0.3
3 0 0.3
3.5 0 0.3
4 0 0.3
4.5 0 0.3
5 0 0.3
0 0.05 0.3
0.5 0.05 0.3
1 0.05 0.3
1.5 0.05 0.3
2 0.05 0.3
2.5 0.05 0.3
3 0.05 0.3
3.5 0.05 0.3
4 0.05 0.3
4.5 0.05 0.3
5 0.05 0.3
0 0.1 0.3
0.5 0.1 0.3
1 0.1 0.3
1.5 0.1 0.3
2 0.1 0.3
2.5 0.1 0.3
3 0.1 0.3
3.5 0.1 0.3
4 0.1 0.3
4.5 0.1 0.3
5 0.1 0.3
0 0.15 0.3
0.5 0.15 0.3
1 0.15 0.3
1.5 0.15 0.3
2 0.15 0.3
2.5 0.15 0.3
3 0.15 0.3
3.5 0.15 0.3
4 0.15 0.3
4.5 0.15 0.3
5 0.15 0.3
0 0.2 0.3
0.5 0.2 0.3
1 0.2 0.3
1.5 0.2 0.3
2 0.2 0.3
2.5 0.2 0.3
3 0.2 0.3
3.5 0.2 0.3
4 0.2 0.3
4.5 0.2 0.3
5 0.2 0.3
0 0.25 0.3
0.5 0.25 0.3
1 0.25 0.3
1.5 0.25 0.3
2 0.25 0.3
2.5 0.25 0.3
3 0.25 0.3
3.5 0.25 0.3
4 0.25 0.3
4.5 0.25 0.3
5 0.25 0.3
0 0.3 0.3
0.5 0.3 0.3
1 0.3 0.3
1.5 0.3 0.3
2 0.3 0.3
2.5 0.3 0.3
3 0.3 0.3
3.5 0.3 0.3
4 0.3 0.3
4.5 0.3 0.3
5 0.3 0.3
0 0.35 0.3
0.5 0.35 0.3
1 0.35 0.3
1.5 0.35 0.3
2 0.35 0.3
2.5 0.35 0.3
3 0.35 0.3
3.5 0.35 0.3
4 0.35 0.3
4.5 0.35 0.3
5 0.35 0.3
0 0.4 0.3
0.5 0.4 0.3
1 0.4 0.3
1.5 0.4 0.3
2 0.4 0.3
2.5 0.4 0.3
3 0.4 0.3
3.5 0.4 0.3
4 0.4 0.3
4.5 0.4 0.3
5 0.4 0.3
0 0.45 0.3
0.5 0.45 0.3
1 0.45 0.3
1.5 0.45 0.3
2 0.45 0.3
2.5 0.45 0.3
3 0.45 0.3
3.5 0.45 0.3
4 0.45 0.3
4.5 0.45 0.3
5 0.45 0.3
0 0.5 0.3
0.5 0.5 0.3
1 0.5 0.3
1.5 0.5 0.3
2 0.5 0.3
2.5 0.5 0.3
3 0.5 0.3
3.5 0.5 0.3
4 0.5 0.3
4.5 0.5 0.3
5 0.5 0.3
0 0.55 0.3
0.5 0.55 0.3
1 0.55 0.3
1.5 0.55 0.3
2 0.55 0.3
2.5 0.55 0.3
3 0.55 0.3
3.5 0.55 0.3
4 0.55 0.3
4.5 0.55 0.3
5 0.55 0.3
0 0.6 0.3
0.5 0.6 0.3
1 0.6 0.3
1.5 0.6 0.3
2 0.6 0.3
2.5 0.6 0.3
3 0.6 0.3
3.5 0.6 0.3
4 0.6 0.3
4.5 0.6 0.3
5 0.6 0.3
0 0.65 0.3
0.5 0.65 0.3
1 0.65 0.3
1.5 0.65 0.3
2 0.65 0.3
2.5 0.65 0.3
3 0.65 0.3
3.5 0.65 0.3
4 0.65 0.3
4.5 0.65 0.3
5 0.65 0.3
0 0.7 0.3
0.5 0.7 0.3
1 0.7 0.3
1.5 0.7 0.3
2 0.7 0.3
2.5 0.7 0.3
3 0.7 0.3
3.5 0.7 0.3
4 0.7 0.3
4.5 0.7 0.3
5 0.7 0.3
0 0.75 0.3
0.5 0.75 0.3
1 0.75 0.3
1.5 0.75 0.3
2 0.75 0.3
2.5 0.75 0.3
3 0.75 0.3
3.5 0.75 0.3
4 0.75 0.3
4.5 0.75 0.3
5 0.75 0.3
0 0.8 0.3
0.5 0.8 0.3
1 0.8 0.3
1.5 0.8 0.3
2 0.8 0.3
2.5 0.8 0.3
3 0.8 0.3
3.5 0.8 0.3
4 0.8 0.3
4.5 0.8 0.3
5 0.8 0.3
0 0.85 0.3
0.5 0.85 0.3
1 0.85 0.3
1.5 0.85 0.3
2 0.85 0.3
2.5 0.85 0.3
3 0.85 0.3
3.5 0.85 0.3
4 0.85 0.3
4.5 0.85 0.3
5 0.85 0.3
0 0.9 0.3
0.5 0.9 0.3
1 0.9 0.3
1.5 0.9 0.3
2 0.9 0.3
2.5 0.9 0.3
3 0.9 0.3
3.5 0.9 0.3
4 0.9 0.3
4.5 0.9 0.3
5 0.9 0.3
0 0.95 0.3
0.5 0.95 0.3
1 0.95 0.3
1.5 0.95 0.3
2 0.95 0.3
2.5 0.95 0.3
3 0.95 0.3
3.5 0.95 0.3
4 0.95 0.3
4.5 0.95 0.3
5 0.95 0.3
0 1 0.3
0.5 1 0.3
1 1 0.3
1.5 1 0.3
2 1 0.3
2.5 1 0.3
3 1 0.3
3.5 1 0.3
4 1 0.3
4.5 1 0.3
5 1 0.3
0 0 0.4
[...]
CELL_DATA 2000
SCALARS pressure float 1
LOOKUP_TABLE default
0
0
0.899187
0.982353
0.804553
0.646658
0.493617
0.34184
0.189637
0.0240722
0
0
0.896826
0.974925
0.80391
0.646526
0.493586
0.341834
0.189651
0.0264348
0
0
0.861185
0.970529
0.80296
0.646331
0.49354
0.341828
0.189728
0.0286893
0
0
0.848364
0.960672
0.801802
0.646088
0.493481
0.341822
0.189841
0.0305833
1.46844
1.60028
0.854491
0.951504
0.800464
0.645806
0.493412
0.341814
0.189966
0.0321203
1.4653
1.59521
0.878128
0.943951
0.799059
0.645496
0.493335
0.341804
0.190088
0.0333411
1.45811
1.58631
0.907154
0.938458
0.797678
0.645167
0.49325
0.341792
0.190195
0.0342791
1.44764
1.57501
0.940253
0.93485
0.796384
0.644829
0.493161
0.341776
0.190281
0.0349603
1.43658
1.56286
0.971978
0.932768
0.795217
0.64449
0.493068
0.341757
0.190338
0.0354036
1.42684
1.551
1.00075
0.931805
0.794184
0.644157
0.492973
0.341734
0.190364
0.0356216
1.41911
1.54001
1.02619
0.93163
0.79328
0.643834
0.492878
0.341708
0.190357
0.0356203
1.41379
1.53019
1.04821
0.931971
0.792494
0.643527
0.492785
0.341679
0.190317
0.0353999
1.41133
1.52166
1.06692
0.932607
0.79181
0.643238
0.492696
0.341648
0.190247
0.034954
1.4118
1.51448
1.08247
0.933354
0.791211
0.642969
0.492611
0.341615
0.190149
0.0342705
1.41505
1.50861
1.09507
0.934068
0.79068
0.642722
0.492532
0.341583
0.19003
0.0333304
1.42089
1.50403
1.10491
0.934634
0.790202
0.642499
0.492461
0.341553
0.189897
0.0321076
1.4288
1.5007
1.11219
0.934964
0.789764
0.642301
0.492398
0.341525
0.189763
0.0305688
1.43703
1.49854
1.11709
0.934997
0.789357
0.642129
0.492344
0.341502
0.189643
0.0286734
1.44287
1.49762
1.11983
0.934732
0.788989
0.641988
0.492302
0.341485
0.18956
0.0264177
1.44545
1.49775
1.12034
0.934216
0.788689
0.641889
0.492274
0.341476
0.189543
0.0240544
0
0
0.908732
0.979281
0.80444
0.64661
0.493605
0.341851
0.189824
0.0283487
0
0
0.904569
0.972688
0.803542
0.646442
0.493567
0.341843
0.189827
0.0317948
0
0
0.870599
0.968498
0.802598
0.646241
0.49352
0.341837
0.189942
0.0342268
0
0
0.878651
0.961327
0.801411
0.646001
0.493463
0.341832
0.190074
0.0361546
1.45309
1.60388
0.824761
0.951167
0.800088
0.645727
0.493396
0.341825
0.190211
0.0377159
1.4493
1.61854
0.840778
0.94135
0.798705
0.645428
0.493321
0.341817
0.19034
0.0389537
1.44283
1.60523
0.88215
0.935715
0.797379
0.645113
0.493239
0.341806
0.190451
0.0399034
1.43441
1.58756
0.922491
0.932884
0.796165
0.64479
0.493153
0.341791
0.190539
0.0405923
1.42487
1.57108
0.960044
0.931468
0.795078
0.644466
0.493064
0.341773
0.190598
0.0410404
1.41553
1.55618
0.993111
0.931006
0.794118
0.644148
0.492973
0.341751
0.190625
0.0412606
1.40814
1.54294
1.02145
0.931208
0.793279
0.643841
0.492882
0.341726
0.190618
0.0412594
1.40307
1.53151
1.04545
0.931829
0.792548
0.643548
0.492793
0.341698
0.190578
0.0410368
1.40046
1.52194
1.06551
0.932671
0.79191
0.643272
0.492706
0.341667
0.190506
0.0405864
1.40036
1.51415
1.08197
0.933571
0.79135
0.643015
0.492624
0.341635
0.190406
0.0398952
1.40301
1.50795
1.09515
0.934397
0.790852
0.642778
0.492548
0.341603
0.190283
0.0389434
1.40826
1.50303
1.10532
0.935045
0.790401
0.642564
0.492479
0.341572
0.190144
0.0377037
1.41459
1.49913
1.11272
0.935436
0.789984
0.642372
0.492417
0.341544
0.189999
0.0361407
1.42087
1.4963
1.11758
0.935514
0.789595
0.642205
0.492365
0.341521
0.189859
0.0342115
1.42627
1.49497
1.12014
0.93522
0.789217
0.64206
0.492322
0.341503
0.189738
0.0317783
1.43024
1.49609
1.12042
0.934503
0.788837
0.641937
0.492288
0.341493
0.18973
0.0283312
0
0
0.919559
0.979226
0.804465
0.646573
0.493594
0.341872
0.19012
0.0315999
0
0
0.914621
0.973521
0.803547
0.646398
0.493555
0.341865
0.190134
0.0352294
0
0
0.886444
0.970392
0.802635
0.646196
0.493507
0.34186
0.190263
0.0377661
0
0
0.896255
0.964772
0.801516
0.64596
0.493451
0.341856
0.190409
0.0397591
1.43747
1.59822
0.816225
0.954971
0.800236
0.645692
0.493385
0.341851
0.190556
0.041362
1.43327
1.63437
0.801651
0.943169
0.798831
0.645398
0.493312
0.341844
0.190692
0.0426274
1.42941
1.63485
0.841867
0.934517
0.797413
0.645088
0.493233
0.341834
0.190809
0.0435953
1.42869
1.61396
0.896515
0.930388
0.796113
0.644772
0.493149
0.34182
0.1909
0.044296
1.42968
1.58915
0.943013
0.92918
0.794993
0.644455
0.493062
0.341803
0.190961
0.0447512
1.43058
1.56673
0.981746
0.92924
0.794042
0.644145
0.492974
0.341782
0.190989
0.0449748
1.43036
1.54798
1.01422
0.929923
0.793228
0.643847
0.492886
0.341758
0.190982
0.0449736
1.42858
1.53298
1.04122
0.930943
0.79253
0.643562
0.492799
0.34173
0.190941
0.0447477
1.42581
1.52144
1.06344
0.932105
0.791926
0.643295
0.492716
0.3417
0.190868
0.0442903
1.42205
1.51302
1.08145
0.933261
0.791398
0.643046
0.492636
0.341668
0.190765
0.0435874
1.41705
1.50719
1.09569
0.934289
0.790929
0.642817
0.492562
0.341636
0.190637
0.0426174
1.41161
1.50319
1.10641
0.9351
0.790505
0.642609
0.492494
0.341604
0.190491
0.0413502
1.40726
1.49995
1.11387
0.93562
0.790114
0.642423
0.492434
0.341576
0.190335
0.0397457
1.40622
1.49706
1.11851
0.935775
0.789741
0.642259
0.492382
0.341551
0.190182
0.0377512
1.4096
1.49541
1.12085
0.935496
0.789364
0.642113
0.492339
0.341532
0.190047
0.0352134
1.41443
1.49657
1.12103
0.934749
0.788969
0.641985
0.492304
0.341521
0.190028
0.0315829
0
0
0.924814
0.980256
0.804565
0.646555
0.493588
0.341895
0.190378
0.0336489
0
0
0.919972
0.974852
0.803656
0.646379
0.493549
0.341888
0.190396
0.0373167
0
0
0.891722
0.972308
0.802776
0.646179
0.493501
0.341884
0.190531
0.0398917
0
0
0.897637
0.967402
0.801708
0.645947
0.493445
0.34188
0.190683
0.0419163
1.42956
1.6075
0.813559
0.957927
0.80048
0.645685
0.493381
0.341876
0.190835
0.0435437
1.42601
1.64846
0.785926
0.945721
0.799102
0.645397
0.493309
0.34187
0.190976
0.0448273
1.42531
1.65523
0.810297
0.935534
0.797637
0.64509
0.493231
0.341861
0.191096
0.0458085
1.43225
1.63568
0.866055
0.929653
0.796228
0.644774
0.493149
0.341848
0.19119
0.0465183
1.44588
1.60556
0.923438
0.92763
0.795002
0.644456
0.493063
0.341832
0.191253
0.0469791
1.4613
1.57567
0.97
0.927607
0.793985
0.644146
0.492977
0.341812
0.191282
0.0472054
1.47279
1.54939
1.00711
0.928438
0.79314
0.643848
0.49289
0.341787
0.191275
0.0472042
1.47717
1.52857
1.03736
0.929671
0.792433
0.643566
0.492805
0.34176
0.191234
0.0469757
1.47436
1.5144
1.06207
0.931072
0.791834
0.643302
0.492722
0.34173
0.191159
0.0465127
1.46421
1.50649
1.08172
0.932492
0.791325
0.643057
0.492644
0.341698
0.191053
0.0458007
1.44702
1.50289
1.09665
0.933803
0.790892
0.642834
0.492571
0.341665
0.190922
0.0448176
1.42651
1.50116
1.10744
0.934867
0.79051
0.642632
0.492505
0.341634
0.190771
0.0435321
1.40938
1.49972
1.11479
0.935563
0.790153
0.64245
0.492445
0.341605
0.19061
0.0419032
1.40097
1.49794
1.1193
0.935817
0.7898
0.642289
0.492394
0.341579
0.190451
0.0398772
1.40158
1.49658
1.12152
0.935584
0.789432
0.642145
0.49235
0.34156
0.19031
0.037301
1.40602
1.49785
1.12165
0.93485
0.789039
0.642016
0.492315
0.341548
0.190288
0.0336322
0
0
0.926045
0.980967
0.804643
0.646549
0.493585
0.341908
0.190524
0.0346301
0
0
0.920819
0.975669
0.803741
0.646373
0.493546
0.341902
0.190543
0.0383073
0
0
0.891478
0.973349
0.802877
0.646174
0.493499
0.341898
0.190679
0.0408951
0
0
0.895805
0.968712
0.801832
0.645945
0.493443
0.341895
0.190834
0.042932
1.42681
1.61507
0.810264
0.959399
0.80063
0.645685
0.493379
0.341891
0.190988
0.0445698
1.42381
1.6574
0.780551
0.947144
0.799273
0.6454
0.493308
0.341886
0.191131
0.0458619
1.42565
1.66552
0.800312
0.936703
0.797816
0.645098
0.493231
0.341877
0.191253
0.0468495
1.43807
1.64618
0.850276
0.930255
0.796383
0.644783
0.493149
0.341865
0.191348
0.0475639
1.45934
1.61406
0.90787
0.927413
0.795089
0.644464
0.493065
0.341849
0.191412
0.0480276
1.48346
1.58018
0.95996
0.926782
0.793982
0.64415
0.492978
0.341829
0.191441
0.0482554
1.50314
1.54947
1.00264
0.927367
0.793066
0.643847
0.492892
0.341805
0.191435
0.0482543
1.51209
1.52479
1.03625
0.928619
0.792319
0.643562
0.492807
0.341777
0.191393
0.0480243
1.50916
1.50883
1.06231
0.930218
0.791723
0.643299
0.492725
0.341747
0.191317
0.0475583
1.49421
1.50139
1.08224
0.931902
0.791246
0.643058
0.492648
0.341715
0.19121
0.0468418
1.46859
1.4993
1.09716
0.933445
0.790848
0.642839
0.492576
0.341683
0.191077
0.0458523
1.4392
1.4994
1.10795
0.934672
0.790494
0.642641
0.49251
0.341651
0.190925
0.0445584
1.41441
1.49941
1.11528
0.935476
0.790156
0.642462
0.492451
0.341622
0.190762
0.0429189
1.40065
1.49849
1.11974
0.935794
0.789817
0.642302
0.4924
0.341596
0.1906
0.0408807
1.39891
1.49742
1.12191
0.935594
0.789456
0.642159
0.492356
0.341576
0.190457
0.0382917
1.40293
1.4988
1.12202
0.934873
0.789066
0.64203
0.492321
0.341564
0.190434
0.0346135
0
0
0.926045
0.980967
0.804643
0.646549
0.493585
0.341908
0.190524
0.0346301
0
0
0.920819
0.975669
0.803741
0.646373
0.493546
0.341902
0.190543
0.0383073
0
0
0.891478
0.973349
0.802877
0.646174
0.493499
0.341898
0.190679
0.0408951
0
0
0.895805
0.968712
0.801832
0.645945
0.493443
0.341895
0.190834
0.042932
1.42681
1.61507
0.810264
0.959399
0.80063
0.645685
0.493379
0.341891
0.190988
0.0445698
1.42381
1.6574
0.780551
0.947144
0.799273
0.6454
0.493308
0.341886
0.191131
0.0458619
1.42565
1.66552
0.800312
0.936703
0.797816
0.645098
0.493231
0.341877
0.191253
0.0468495
1.43807
1.64618
0.850276
0.930255
0.796383
0.644783
0.493149
0.341865
0.191348
0.0475639
1.45934
1.61406
0.90787
0.927413
0.795089
0.644464
0.493065
0.341849
0.191412
0.0480276
1.48346
1.58018
0.95996
0.926782
0.793982
0.64415
0.492978
0.341829
0.191441
0.0482554
1.50314
1.54947
1.00264
0.927367
0.793066
0.643847
0.492892
0.341805
0.191435
0.0482543
1.51209
1.52479
1.03625
0.928619
0.792319
0.643562
0.492807
0.341777
0.191393
0.0480243
1.50916
1.50883
1.06231
0.930218
0.791723
0.643299
0.492725
0.341747
0.191317
0.0475583
1.49421
1.50139
1.08224
0.931902
0.791246
0.643058
0.492648
0.341715
0.19121
0.0468418
1.46859
1.4993
1.09716
0.933445
0.790848
0.642839
0.492576
0.341683
0.191077
0.0458523
1.4392
1.4994
1.10795
0.934672
0.790494
0.642641
0.49251
0.341651
0.190925
0.0445584
1.41441
1.49941
1.11528
0.935476
0.790156
0.642462
0.492451
0.341622
0.190762
0.0429189
1.40065
1.49849
1.11974
0.935794
0.789817
0.642302
0.4924
0.341596
0.1906
0.0408807
1.39891
1.49742
1.12191
0.935594
0.789456
0.642159
0.492356
0.341576
0.190457
0.0382917
1.40293
1.4988
1.12202
0.934873
0.789066
0.64203
0.492321
0.341564
0.190434
0.0346135
0
0
0.924814
0.980256
0.804565
0.646555
0.493588
0.341895
0.190378
0.0336489
0
0
0.919972
0.974852
0.803656
0.646379
0.493549
0.341888
0.190396
0.0373167
0
0
0.891722
0.972308
0.802776
0.646179
0.493501
0.341884
0.190531
0.0398917
0
0
0.897637
0.967402
0.801708
0.645947
0.493445
0.34188
0.190683
0.0419163
1.42956
1.6075
0.813559
0.957927
0.80048
0.645685
0.493381
0.341876
0.190835
0.0435437
1.42601
1.64846
0.785926
0.945721
0.799102
0.645397
0.493309
0.34187
0.190976
0.0448273
1.42531
1.65523
0.810297
0.935534
0.797637
0.64509
0.493231
0.341861
0.191096
0.0458085
1.43225
1.63568
0.866055
0.929653
0.796228
0.644774
0.493149
0.341848
0.19119
0.0465183
1.44588
1.60556
0.923438
0.92763
0.795002
0.644456
0.493063
0.341832
0.191253
0.0469791
1.4613
1.57567
0.97
0.927607
0.793985
0.644146
0.492977
0.341812
0.191282
0.0472054
1.47279
1.54939
1.00711
0.928438
0.79314
0.643848
0.49289
0.341787
0.191275
0.0472042
1.47717
1.52857
1.03736
0.929671
0.792433
0.643566
0.492805
0.34176
0.191234
0.0469757
1.47436
1.5144
1.06207
0.931072
0.791834
0.643302
0.492722
0.34173
0.191159
0.0465127
1.46421
1.50649
1.08172
0.932492
0.791325
0.643057
0.492644
0.341698
0.191053
0.0458007
1.44702
1.50289
1.09665
0.933803
0.790892
0.642834
0.492571
0.341665
0.190922
0.0448176
1.42651
1.50116
1.10744
0.934867
0.79051
0.642632
0.492505
0.341634
0.190771
0.0435321
1.40938
1.49972
1.11479
0.935563
0.790153
0.64245
0.492445
0.341605
0.19061
0.0419032
1.40097
1.49794
1.1193
0.935817
0.7898
0.642289
0.492394
0.341579
0.190451
0.0398772
1.40158
1.49658
1.12152
0.935584
0.789432
0.642145
0.49235
0.34156
0.19031
0.037301
1.40602
1.49785
1.12165
0.93485
0.789039
0.642016
0.492315
0.341548
0.190288
0.0336322
0
0
0.919559
0.979226
0.804465
0.646573
0.493594
0.341872
0.19012
0.0315999
0
0
0.914621
0.973521
0.803547
0.646398
0.493555
0.341865
0.190134
0.0352294
0
0
0.886444
0.970392
0.802635
0.646196
0.493507
0.34186
0.190263
0.0377661
0
0
0.896255
0.964772
0.801516
0.64596
0.493451
0.341856
0.190409
0.0397591
1.43747
1.59822
0.816225
0.954971
0.800236
0.645692
0.493385
0.341851
0.190556
0.041362
1.43327
1.63437
0.801651
0.943169
0.798831
0.645398
0.493312
0.341844
0.190692
0.0426274
1.42941
1.63485
0.841867
0.934517
0.797413
0.645088
0.493233
0.341834
0.190809
0.0435953
1.42869
1.61396
0.896515
0.930388
0.796113
0.644772
0.493149
0.34182
0.1909
0.044296
1.42968
1.58915
0.943013
0.92918
0.794993
0.644455
0.493062
0.341803
0.190961
0.0447512
1.43058
1.56673
0.981746
0.92924
0.794042
0.644145
0.492974
0.341782
0.190989
0.0449748
1.43036
1.54798
1.01422
0.929923
0.793228
0.643847
0.492886
0.341758
0.190982
0.0449736
1.42858
1.53298
1.04122
0.930943
0.79253
0.643562
0.492799
0.34173
0.190941
0.0447477
1.42581
1.52144
1.06344
0.932105
0.791926
0.643295
0.492716
0.3417
0.190868
0.0442903
1.42205
1.51302
1.08145
0.933261
0.791398
0.643046
0.492636
0.341668
0.190765
0.0435874
1.41705
1.50719
1.09569
0.934289
0.790929
0.642817
0.492562
0.341636
0.190637
0.0426174
1.41161
1.50319
1.10641
0.9351
0.790505
0.642609
0.492494
0.341604
0.190491
0.0413502
1.40726
1.49995
1.11387
0.93562
0.790114
0.642423
0.492434
0.341576
0.190335
0.0397457
1.40622
1.49706
1.11851
0.935775
0.789741
0.642259
0.492382
0.341551
0.190182
0.0377512
1.4096
1.49541
1.12085
0.935496
0.789364
0.642113
0.492339
0.341532
0.190047
0.0352134
1.41443
1.49657
1.12103
0.934749
0.788969
0.641985
0.492304
0.341521
0.190028
0.0315829
0
0
0.908732
0.979281
0.80444
0.64661
0.493605
0.341851
0.189824
0.0283487
0
0
0.904569
0.972688
0.803542
0.646442
0.493567
0.341843
0.189827
0.0317948
0
0
0.870599
0.968498
0.802598
0.646241
0.49352
0.341837
0.189942
0.0342268
0
0
0.878651
0.961327
0.801411
0.646001
0.493463
0.341832
0.190074
0.0361546
1.45309
1.60388
0.824761
0.951167
0.800088
0.645727
0.493396
0.341825
0.190211
0.0377159
1.4493
1.61854
0.840778
0.94135
0.798705
0.645428
0.493321
0.341817
0.19034
0.0389537
1.44283
1.60523
0.88215
0.935715
0.797379
0.645113
0.493239
0.341806
0.190451
0.0399034
1.43441
1.58756
0.922491
0.932884
0.796165
0.64479
0.493153
0.341791
0.190539
0.0405923
1.42487
1.57108
0.960044
0.931468
0.795078
0.644466
0.493064
0.341773
0.190598
0.0410404
1.41553
1.55618
0.993111
0.931006
0.794118
0.644148
0.492973
0.341751
0.190625
0.0412606
1.40814
1.54294
1.02145
0.931208
0.793279
0.643841
0.492882
0.341726
0.190618
0.0412594
1.40307
1.53151
1.04545
0.931829
0.792548
0.643548
0.492793
0.341698
0.190578
0.0410368
1.40046
1.52194
1.06551
0.932671
0.79191
0.643272
0.492706
0.341667
0.190506
0.0405864
1.40036
1.51415
1.08197
0.933571
0.79135
0.643015
0.492624
0.341635
0.190406
0.0398952
1.40301
1.50795
1.09515
0.934397
0.790852
0.642778
0.492548
0.341603
0.190283
0.0389434
1.40826
1.50303
1.10532
0.935045
0.790401
0.642564
0.492479
0.341572
0.190144
0.0377037
1.41459
1.49913
1.11272
0.935436
0.789984
0.642372
0.492417
0.341544
0.189999
0.0361407
1.42087
1.4963
1.11758
0.935514
0.789595
0.642205
0.492365
0.341521
0.189859
0.0342115
1.42627
1.49497
1.12014
0.93522
0.789217
0.64206
0.492322
0.341503
0.189738
0.0317783
1.43024
1.49609
1.12042
0.934503
0.788837
0.641937
0.492288
0.341493
0.18973
0.0283312
0
0
0.899187
0.982353
0.804553
0.646658
0.493617
0.34184
0.189637
0.0240722
0
0
0.896826
0.974925
0.80391
0.646526
0.493586
0.341834
0.189651
0.0264348
0
0
0.861185
0.970529
0.80296
0.646331
0.49354
0.341828
0.189728
0.0286893
0
0
0.848364
0.960672
0.801802
0.646088
0.493481
0.341822
0.189841
0.0305833
1.46844
1.60028
0.854491
0.951504
0.800464
0.645806
0.493412
0.341814
0.189966
0.0321203
1.4653
1.59521
0.878128
0.943951
0.799059
0.645496
0.493335
0.341804
0.190088
0.0333411
1.45811
1.58631
0.907154
0.938458
0.797678
0.645167
0.49325
0.341792
0.190195
0.0342791
1.44764
1.57501
0.940253
0.93485
0.796384
0.644829
0.493161
0.341776
0.190281
0.0349603
1.43658
1.56286
0.971978
0.932768
0.795217
0.64449
0.493068
0.341757
0.190338
0.0354036
1.42684
1.551
1.00075
0.931805
0.794184
0.644157
0.492973
0.341734
0.190364
0.0356216
1.41911
1.54001
1.02619
0.93163
0.79328
0.643834
0.492878
0.341708
0.190357
0.0356203
1.41379
1.53019
1.04821
0.931971
0.792494
0.643527
0.492785
0.341679
0.190317
0.0353999
1.41133
1.52166
1.06692
0.932607
0.79181
0.643238
0.492696
0.341648
0.190247
0.034954
1.4118
1.51448
1.08247
0.933354
0.791211
0.642969
0.492611
0.341615
0.190149
0.0342705
1.41505
1.50861
1.09507
0.934068
0.79068
0.642722
0.492532
0.341583
0.19003
0.0333304
1.42089
1.50403
1.10491
0.934634
0.790202
0.642499
0.492461
0.341553
0.189897
0.0321076
1.4288
1.5007
1.11219
0.934964
0.789764
0.642301
0.492398
0.341525
0.189763
0.0305688
1.43703
1.49854
1.11709
0.934997
0.789357
0.642129
0.492344
0.341502
0.189643
0.0286734
1.44287
1.49762
1.11983
0.934732
0.788989
0.641988
0.492302
0.341485
0.18956
0.0264177
1.44545
1.49775
1.12034
0.934216
0.788689
0.641889
0.492274
0.341476
0.189543
0.0240544

VECTORS velocity float
0 0 0
0 0 0
0.755443 -0.031551 -0.00164547
0.669832 -0.00269592 0.000945388
0.698472 -0.000697429 0.000113437
0.706327 -0.000156715 2.37448e-05
0.708101 -3.5186e-05 5.19757e-06
0.708534 -9.42438e-06 -2.44467e-06
0.708982 -1.20531e-05 -4.43337e-05
0.729179 -0.00138118 -0.00120853
0 0 0
0 0 0
-0.120988 -0.0935124 -0.00126446
0.684679 -0.0121343 0.000745552
0.757441 -0.00237591 0.000149127
0.768326 -0.000511391 3.18055e-05
0.770551 -0.000114262 6.88628e-06
0.771083 -3.0497e-05 -2.19261e-06
0.771779 -5.72455e-05 -4.74662e-05
0.779225 -0.00271613 -0.00146792
0 0 0
0 0 0
0.777455 -0.158557 5.45549e-05
0.723998 -0.0223662 0.00063538
0.763815 -0.00423214 0.000130201
0.773694 -0.000902604 3.0859e-05
0.775872 -0.000201466 6.85704e-06
0.776394 -5.33501e-05 -2.35702e-06
0.777003 -0.000112816 -5.21147e-05
0.782891 -0.00245597 -0.00150837
0 0 0
0 0 0
-0.106642 -0.225792 0.000313576
0.70273 -0.0312809 0.000108403
0.764556 -0.00597307 0.000108505
0.774329 -0.00127586 2.84826e-05
0.776357 -0.000285029 6.39349e-06
0.77684 -7.45359e-05 -2.62613e-06
0.777336 -0.000145775 -5.55142e-05
0.783272 -0.00203501 -0.0015246
0.410226 -0.0172266 -0.037245
0.81533 0.00750767 -0.0244027
0.781137 -0.256036 0.0114552
0.730106 -0.0402124 0.00105093
0.766554 -0.00756645 0.000127084
0.774655 -0.00161486 2.60498e-05
0.776445 -0.00036115 5.69187e-06
0.776874 -9.29301e-05 -2.92784e-06
0.777274 -0.000157802 -5.73085e-05
0.783387 -0.00164255 -0.00153312
0.488125 -0.0462344 -0.0450058
0.952394 0.0147666 -0.0237881
0.906543 -0.244498 0.0150904
0.751416 -0.0457457 0.00162386
0.76868 -0.00887162 0.000132692
0.775016 -0.00190753 2.25152e-05
0.776522 -0.000427538 4.78402e-06
0.776886 -0.000107974 -3.25896e-06
0.777207 -0.000153931 -5.84226e-05
0.78347 -0.00129033 -0.00153854
0.534171 -0.0632933 -0.051191
0.962829 0.012398 -0.0197456
0.921915 -0.224258 0.010054
0.764072 -0.0487032 0.0012613
0.770765 -0.00987117 0.000104877
0.775422 -0.00214621 1.75697e-05
0.776609 -0.000482407 3.71364e-06
0.7769 -0.000119335 -3.60151e-06
0.777156 -0.000138052 -5.91338e-05
0.783535 -0.000971381 -0.001542
0.57247 -0.0683215 -0.0565457
0.958559 0.00815747 -0.0169294
0.920965 -0.201678 0.00564447
0.774078 -0.049693 0.000806264
0.772914 -0.010557 7.27355e-05
0.775866 -0.00232508 1.22682e-05
0.776706 -0.000524339 2.54493e-06
0.776917 -0.000126852 -3.94416e-06
0.77712 -0.000113312 -5.95945e-05
0.783582 -0.000677797 -0.00154418
0.603579 -0.0633279 -0.0610692
0.953557 0.00454359 -0.0154285
0.918544 -0.17897 0.00304666
0.782845 -0.0491273 0.000472479
0.775094 -0.010928 4.19629e-05
0.776334 -0.00244019 6.88871e-06
0.77681 -0.000552298 1.32117e-06
0.776937 -0.000130511 -4.27824e-06
0.777099 -8.23441e-05 -5.98887e-05
0.783614 -0.000401976 -0.00154547
0.62743 -0.0503795 -0.0647442
0.949082 0.00240059 -0.0146952
0.91617 -0.157201 0.00140898
0.7905 -0.0473441 0.000240344
0.777229 -0.0109938 1.50306e-05