# vtk DataFile Version 2.0
TestTestTest
ASCII

DATASET STRUCTURED_GRID
DIMENSIONS 11 21 11
POINTS 2541 float
0 0 0
0.5 0 0
1 0 0
1.5 0 0
2 0 0
2.5 0 0
3 0 0
3.5 0 0
4 0 0
4.5 0 0
5 0 0
0 0.05 0
0.5 0.05 0
1 0.05 0
1.5 0.05 0
2 0.05 0
2.5 0.05 0
3 0.05 0
3.5 0.05 0
4 0.05 0
4.5 0.05 0
5 0.05 0
0 0.1 0
0.5 0.1 0
1 0.1 0
1.5 0.1 0
2 0.1 0
2.5 0.1 0
3 0.1 0
3.5 0.1 0
4 0.1 0
4.5 0.1 0
5 0.1 0
0 0.15 0
0.5 0.15 0
1 0.15 0
1.5 0.15 0
2 0.15 0
2.5 0.15 0
3 0.15 0
3.5 0.15 0
4 0.15 0
4.5 0.15 0
5 0.15 0
0 0.2 0
0.5 0.2 0
1 0.2 0
1.5 0.2 0
2 0.2 0
2.5 0.2 0
3 0.2 0
3.5 0.2 0
4 0.2 0
4.5 0.2 0
5 0.2 0
0 0.25 0
0.5 0.25 0
1 0.25 0
1.5 0.25 0
2 0.25 0
2.5 0.25 0
3 0.25 0
3.5 0.25 0
4 0.25 0
4.5 0.25 0
5 0.25 0
0 0.3 0
0.5 0.3 0
1 0.3 0
1.5 0.3 0
2 0.3 0
2.5 0.3 0
3 0.3 0
3.5 0.3 0
4 0.3 0
4.5 0.3 0
5 0.3 0
0 0.35 0
0.5 0.35 0
1 0.35 0
1.5 0.35 0
2 0.35 0
2.5 0.35 0
3 0.35 0
3.5 0.35 0
4 0.35 0
4.5 0.35 0
5 0.35 0
0 0.4 0
0.5 0.4 0
1 0.4 0
1.5 0.4 0
2 0.4 0
2.5 0.4 0
3 0.4 0
3.5 0.4 0
4 0.4 0
4.5 0.4 0
5 0.4 0
0 0.45 0
0.5 0.45 0
1 0.45 0
1.5 0.45 0
2 0.45 0
2.5 0.45 0
3 0.45 0
3.5 0.45 0
4 0.45 0
4.5 0.45 0
5 0.45 0
0 0.5 0
0.5 0.5 0
1 0.5 0
1.5 0.5 0
2 0.5 0
2.5 0.5 0
3 0.5 0
3.5 0.5 0
4 0.5 0
4.5 0.5 0
5 0.5 0
0 0.55 0
0.5 0.55 0
1 0.55 0
1.5 0.55 0
2 0.55 0
2.5 0.55 0
3 0.55 0
3.5 0.55 0
4 0.55 0
4.5 0.55 0
5 0.55 0
0 0.6 0
0.5 0.6 0
1 0.6 0
1.5 0.6 0
2 0.6 0
2.5 0.6 0
3 0.6 0
3.5 0.6 0
4 0.6 0
4.5 0.6 0
5 0.6 0
0 0.65 0
0.5 0.65 0
1 0.65 0
1.5 0.65 0
2 0.65 0
2.5 0.65 0
3 0.65 0
3.5 0.65 0
4 0.65 0
4.5 0.65 0
5 0.65 0
0 0.7 0
0.5 0.7 0
1 0.7 0
1.5 0.7 0
2 0.7 0
2.5 0.7 0
3 0.7 0
3.5 0.7 0
4 0.7 0
4.5 0.7 0
5 0.7 0
0 0.75 0
0.5 0.75 0
1 0.75 0
1.5 0.75 0
2 0.75 0
2.5 0.75 0
3 0.75 0
3.5 0.75 0
4 0.75 0
4.5 0.75 0
5 0.75 0
0 0.8 0
0.5 0.8 0
1 0.8 0
1.5 0.8 0
2 0.8 0
2.5 0.8 0
3 0.8 0
3.5 0.8 0
4 0.8 0
4.5 0.8 0
5 0.8 0
0 0.85 0
0.5 0.85 0
1 0.85 0
1.5 0.85 0
2 0.85 0
2.5 0.85 0
3 0.85 0
3.5 0.85 0
4 0.85 0
4.5 0.85 0
5 0.85 0
0 0.9 0
0.5 0.9 0
1 0.9 0
1.5 0.9 0
2 0.9 0
2.5 0.9 0
3 0.9 0
3.5 0.9 0
4 0.9 0
4.5 0.9 0
5 0.9 0
0 0.95 0
0.5 0.95 0
1 0.95 0
1.5 0.95 0
2 0.95 0
2.5 0.95 0
3 0.95 0
3.5 0.95 0
4 0.95 0
4.5 0.95 0
5 0.95 0
0 1 0
0.5 1 0
1 1 0
1.5 1 0
2 1 0
2.5 1 0
3 1 0
3.5 1 0
4 1 0
4.5 1 0
5 1 0
0 0 0.1
0.5 0 0.1
1 0 0.1
1.5 0 0.1
2 0 0.1
2.5 0 0.1
3 0 0.1
3.5 0 0.1
4 0 0.1
4.5 0 0.1
5 0 0.1
0 0.05 0.1
0.5 0.05 0.1
1 0.05 0.1
1.5 0.05 0.1
2 0.05 0.1
2.5 0.05 0.1
3 0.05 0.1
3.5 0.05 0.1
4 0.05 0.1
4.5 0.05 0.1
5 0.05 0.1
0 0.1 0.1
0.5 0.1 0.1
1 0.1 0.1
1.5 0.1 0.1
2 0.1 0.1
2.5 0.1 0.1
3 0.1 0.1
3.5 0.1 0.1
4 0.1 0.1
4.5 0.1 0.1
5 0.1 0.1
0 0.15 0.1
0.5 0.15 0.1
1 0.15 0.1
1.5 0.15 0.1
2 0.15 0.1
2.5 0.15 0.1
3 0.15 0.1
3.5 0.15 0.1
4 0.15 0.1
4.5 0.15 0.1
5 0.15 0.1
0 0.2 0.1
0.5 0.2 0.1
1 0.2 0.1
1.5 0.2 0.1
2 0.2 0.1
2.5 0.2 0.1
3 0.2 0.1
3.5 0.2 0.1
4 0.2 0.1
4.5 0.2 0.1
5 0.2 0.1
0 0.25 0.1
0.5 0.25 0.1
1 0.25 0.1
1.5 0.25 0.1
2 0.25 0.1
2.5 0.25 0.1
3 0.25 0.1
3.5 0.25 0.1
4 0.25 0.1
4.5 0.25 0.1
5 0.25 0.1
0 0.3 0.1
0.5 0.3 0.1
1 0.3 0.1
1.5 0.3 0.1
2 0.3 0.1
2.5 0.3 0.1
3 0.3 0.1
3.5 0.3 0.1
4 0.3 0.1
4.5 0.3 0.1
5 0.3 0.1
0 0.35 0.1
0.5 0.35 0.1
1 0.35 0.1
1.5 0.35 0.1
2 0.35 0.1
2.5 0.35 0.1
3 0.35 0.1
3.5 0.35 0.1
4 0.35 0.1
4.5 0.35 0.1
5 0.35 0.1
0 0.4 0.1
0.5 0.4 0.1
1 0.4 0.1
1.5 0.4 0.1
2 0.4 0.1
2.5 0.4 0.1
3 0.4 0.1
3.5 0.4 0.1
4 0.4 0.1
4.5 0.4 0.1
5 0.4 0.1
0 0.45 0.1
0.5 0.45 0.1
1 0.45 0.1
1.5 0.45 0.1
2 0.45 0.1
2.5 0.45 0.1
3 0.45 0.1
3.5 0.45 0.1
4 0.45 0.1
4.5 0.45 0.1
5 0.45 0.1
0 0.5 0.1
0.5 0.5 0.1
1 0.5 0.1
1.5 0.5 0.1
2 0.5 0.1
2.5 0.5 0.1
3 0.5 0.1
3.5 0.5 0.1
4 0.5 0.1
4.5 0.5 0.1
5 0.5 0.1
0 0.55 0.1
0.5 0.55 0.1
1 0.55 0.1
1.5 0.55 0.1
2 0.55 0.1
2.5 0.55 0.1
3 0.55 0.1
3.5 0.55 0.1
4 0.55 0.1
4.5 0.55 0.1
5 0.55 0.1
0 0.6 0.1
0.5 0.6 0.1
1 0.6 0.1
1.5 0.6 0.1
2 0.6 0.1
2.5 0.6 0.1
3 0.6 0.1
3.5 0.6 0.1
4 0.6 0.1
4.5 0.6 0.1
5 0.6 0.1
0 0.65 0.1
0.5 0.65 0.1
1 0.65 0.1
1.5 0.65 0.1
2 0.65 0.1
2.5 0.65 0.1
3 0.65 0.1
3.5 0.65 0.1
4 0.65 0.1
4.5 0.65 0.1
5 0.65 0.1
0 0.7 0.1
0.5 0.7 0.1
1 0.7 0.1
1.5 0.7 0.1
2 0.7 0.1
2.5 0.7 0.1
3 0.7 0.1
3.5 0.7 0.1
4 0.7 0.1
4.5 0.7 0.1
5 0.7 0.1
0 0.75 0.1
0.5 0.75 0.1
1 0.75 0.1
1.5 0.75 0.1
2 0.75 0.1
2.5 0.75 0.1
3 0.75 0.1
3.5 0.75 0.1
4 0.75 0.1
4.5 0.75 0.1
5 0.75 0.1
0 0.8 0.1
0.5 0.8 0.1
1 0.8 0.1
1.5 0.8 0.1
2 0.8 0.1
2.5 0.8 0.1
3 0.8 0.1
3.5 0.8 0.1
4 0.8 0.1
4.5 0.8 0.1
5 0.8 0.1
0 0.85 0.1
0.5 0.85 0.1
1 0.85 0.1
1.5 0.85 0.1
2 0.85 0.1
2.5 0.85 0.1
3 0.85 0.1
3.5 0.85 0.1
4 0.85 0.1
4.5 0.85 0.1
5 0.85 0.1
0 0.9 0.1
0.5 0.9 0.1
1 0.9 0.1
1.5 0.9 0.1
2 0.9 0.1
2.5 0.9 0.1
3 0.9 0.1
3.5 0.9 0.1
4 0.9 0.1
4.5 0.9 0.1
5 0.9 0.1
0 0.95 0.1
0.5 0.95 0.1
1 0.95 0.1
1.5 0.95 0.1
2 0.95 0.1
2.5 0.95 0.1
3 0.95 0.1
3.5 0.95 0.1
4 0.95 0.1
4.5 0.95 0.1
5 0.95 0.1
0 1 0.1
0.5 1 0.1
1 1 0.1
1.5 1 0.1
2 1 0.1
2.5 1 0.1
3 1 0.1
3.5 1 0.1
4 1 0.1
4.5 1 0.1
5 1 0.1
0 0 0.2
0.5 0 0.2
1 0 0.2
1.5 0 0.2
2 0 0.2
2.5 0 0.2
3 0 0.2
3.5 0 0.2
4 0 0.2
4.5 0 0.2
5 0 0.2
0 0.05 0.2
0.5 0.05 0.2
1 0.05 0.2
1.5 0.05 0.2
2 0.05 0.2
2.5 0.05 0.2
3 0.05 0.2
3.5 0.05 0.2
4 0.05 0.2
4.5 0.05 0.2
5 0.05 0.2
0 0.1 0.2
0.5 0.1 0.2
1 0.1 0.2
1.5 0.1 0.2
2 0.1 0.2
2.5 0.1 0.2
3 0.1 0.2
3.5 0.1 0.2
4 0.1 0.2
4.5 0.1 0.2
5 0.1 0.2
0 0.15 0.2
0.5 0.15 0.2
1 0.15 0.2
1.5 0.15 0.2
2 0.15 0.2
2.5 0.15 0.2
3 0.15 0.2
3.5 0.15 0.2
4 0.15 0.2
4.5 0.15 0.2
5 0.15 0.2
0 0.2 0.2
0.5 0.2 0.2
1 0.2 0.2
1.5 0.2 0.2
2 0.2 0.2
2.5 0.2 0.2
3 0.2 0.2
3.5 0.2 0.2
4 0.2 0.2
4.5 0.2 0.2
5 0.2 0.2
0 0.25 0.2
0.5 0.25 0.2
1 0.25 0.2
1.5 0.25 0.2
2 0.25 0.2
2.5 0.25 0.2
3 0.25 0.2
3.5 0.25 0.2
4 0.25 0.2
4.5 0.25 0.2
5 0.25 0.2
0 0.3 0.2
0.5 0.3 0.2
1 0.3 0.2
1.5 0.3 0.2
2 0.3 0.2
2.5 0.3 0.2
3 0.3 0.2
3.5 0.3 0.2
4 0.3 0.2
4.5 0.3 0.2
5 0.3 0.2
0 0.35 0.2
0.5 0.35 0.2
1 0.35 0.2
1.5 0.35 0.2
2 0.35 0.2
2.5 0.35 0.2
3 0.35 0.2
3.5 0.35 0.2
4 0.35 0.2
4.5 0.35 0.2
5 0.35 0.2
0 0.4 0.2
0.5 0.4 0.2
1 0.4 0.2
1.5 0.4 0.2
2 0.4 0.2
2.5 0.4 0.2
3 0.4 0.2
3.5 0.4 0.2
4 0.4 0.2
4.5 0.4 0.2
5 0.4 0.2
0 0.45 0.2
0.5 0.45 0.2
1 0.45 0.2
1.5 0.45 0.2
2 0.45 0.2
2.5 0.45 0.2
3 0.45 0.2
3.5 0.45 0.2
4 0.45 0.2
4.5 0.45 0.2
5 0.45 0.2
0 0.5 0.2
0.5 0.5 0.2
1 0.5 0.2
1.5 0.5 0.2
2 0.5 0.2
2.5 0.5 0.2
3 0.5 0.2
3.5 0.5 0.2
4 0.5 0.2
4.5 0.5 0.2
5 0.5 0.2
0 0.55 0.2
0.5 0.55 0.2
1 0.55 0.2
1.5 0.55 0.2
2 0.55 0.2
2.5 0.55 0.2
3 0.55 0.2
3.5 0.55 0.2
4 0.55 0.2
4.5 0.55 0.2
5 0.55 0.2
0 0.6 0.2
0.5 0.6 0.2
1 0.6 0.2
1.5 0.6 0.2
2 0.6 0.2
2.5 0.6 0.2
3 0.6 0.2
3.5 0.6 0.2
4 0.6 0.2
4.5 0.6 0.2
5 0.6 0.2
0 0.65 0.2
0.5 0.65 0.2
1 0.65 0.2
1.5 0.65 0.2
2 0.65 0.2
2.5 0.65 0.2
3 0.65 0.2
3.5 0.65 0.2
4 0.65 0.2
4.5 0.65 0.2
5 0.65 0.2
0 0.7 0.2
0.5 0.7 0.2
1 0.7 0.2
1.5 0.7 0.2
2 0.7 0.2
2.5 0.7 0.2
3 0.7 0.2
3.5 0.7 0.2
4 0.7 0.2
4.5 0.7 0.2
5 0.7 0.2
0 0.75 0.2
0.5 0.75 0.2
1 0.75 0.2
1.5 0.75 0.2
2 0.75 0.2
2.5 0.75 0.2
3 0.75 0.2
3.5 0.75 0.2
4 0.75 0.2
4.5 0.75 0.2
5 0.75 0.2
0 0.8 0.2
0.5 0.8 0.2
1 0.8 0.2
1.5 0.8 0.2
2 0.8 0.2
2.5 0.8 0.2
3 0.8 0.2
3.5 0.8 0.2
4 0.8 0.2
4.5 0.8 0.2
5 0.8 0.2
0 0.85 0.2
0.5 0.85 0.2
1 0.85 0.2
1.5 0.85 0.2
2 0.85 0.2
2.5 0.85 0.2
3 0.85 0.2
3.5 0.85 0.2
4 0.85 0.2
4.5 0.85 0.2
5 0.85 0.2
0 0.9 0.2
0.5 0.9 0.2
1 0.9 0.2
1.5 0.9 0.2
2 0.9 0.2
2.5 0.9 0.2
3 0.9 0.2
3.5 0.9 0.2
4 0.9 0.2
4.5 0.9 0.2
5 0.9 0.2
0 0.95 0.2
0.5 0.95 0.2
1 0.95 0.2
1.5 0.95 0.2
2 0.95 0.2
2.5 0.95 0.2
3 0.95 0.2
3.5 0.95 0.2
4 0.95 0.2
4.5 0.95 0.2
5 0.95 0.2
0 1 0.2
0.5 1 0.2
1 1 0.2
1.5 1 0.2
2 1 0.2
2.5 1 0.2
3 1 0.2
3.5 1 0.2
4 1 0.2
4.5 1 0.2
5 1 0.2
0 0 0.3
0.5 0 0.3
1 0 0.3
1.5 0 0.3
2 0 0.3
2.5 0 0.3
3 0 0.3
3.5 0 0.3
4 0 0.3
4.5 0 0.3
5 0 0.3
0 0.05 0.3
0.5 0.05 0.3
1 0.05 0.3
1.5 0.05 0.3
2 0.05 0.3
2.5 0.05 0.3
3 0.05 0.3
3.5 0.05 0.3
4 0.05 0.3
4.5 0.05 0.3
5 0.05 0.3
0 0.1 0.3
0.5 0.1 0.3
1 0.1 0.3
1.5 0.1 0.3
2 0.1 0.3
2.5 0.1 0.3
3 0.1 0.3
3.5 0.1 0.3
4 0.1 0.3
4.5 0.1 0.3
5 0.1 0.3
0 0.15 0.3
0.5 0.15 0.3
1 0.15 0.3
1.5 0.15 0.3
2 0.15 0.3
2.5 0.15 0.3
3 0.15 0.3
3.5 0.15 0.3
4 0.15 0.3
4.5 0.15 0.3
5 0.15 0.3
0 0.2 0.3
0.5 0.2 0.3
1 0.2 0.3
1.5 0.2 0.3
2 0.2 0.3
2.5 0.2 0.3
3 0.2 0.3
3.5 0.2 0.3
4 0.2 0.3
4.5 0.2 0.3
5 0.2 0.3
0 0.25 0.3
0.5 0.25 0.3
1 0.25 0.3
1.5 0.25 0.3
2 0.25 0.3
2.5 0.25 0.3
3 0.25 0.3
3.5 0.25 0.3
4 0.25 0.3
4.5 0.25 0.3
5 0.25 0.3
0 0.3 0.3
0.5 0.3 0.3
1 0.3 0.3
1.5 0.3 0.3
2 0.3 0.3
2.5 0.3 0.3
3 0.3 0.3
3.5 0.3 0.3
4 0.3 0.3
4.5 0.3 0.3
5 0.3 0.3
0 0.35 0.3
0.5 0.35 0.3
1 0.35 0.3
1.5 0.35 0.3
2 0.35 0.3
2.5 0.35 0.3
3 0.35 0.3
3.5 0.35 0.3
4 0.35 0.3
4.5 0.35 0.3
5 0.35 0.3
0 0.4 0.3
0.5 0.4 0.3
1 0.4 0.3
1.5 0.4 0.3
2 0.4 0.3
2.5 0.4 0.3
3 0.4 0.3
3.5 0.4 0.3
4 0.4 0.3
4.5 0.4 0.3
5 0.4 0.3
0 0.45 0.3
0.5 0.45 0.3
1 0.45 0.3
1.5 0.45 0.3
2 0.45 0.3
2.5 0.45 0.3
3 0.45 0.3
3.5 0.45 0.3
4 0.45 0.3
4.5 0.45 0.3
5 0.45 0.3
0 0.5 0.3
0.5 0.5 0.3
1 0.5 0.3
1.5 0.5 0.3
2 0.5 0.3
2.5 0.5 0.3
3 0.5 0.3
3.5 0.5 0.3
4 0.5 0.3
4.5 0.5 0.3
5 0.5 0.3
0 0.55 0.3
0.5 0.55 0.3
1 0.55 0.3
1.5 0.55 0.3
2 0.55 0.3
2.5 0.55 0.3
3 0.55 0.3
3.5 0.55 0.3
4 0.55 0.3
4.5 0.55 0.3
5 0.55 0.3
0 0.6 0.3
0.5 0.6 0.3
1 0.6 0.3
1.5 0.6 0.3
2 0.6 0.3
2.5 0.6 0.3
3 0.6 0.3
3.5 0.6 0.3
4 0.6 0.3
4.5 0.6 0.3
5 0.6 0.3
0 0.65 0.3
0.5 0.65 0.3
1 0.65 0.3
1.5 0.65 0.3
2 0.65 0.3
2.5 0.65 0.3
3 0.65 0.3
3.5 0.65 0.3
4 0.65 0.3
4.5 0.65 0.3
5 0.65 0.3
0 0.7 0.3
0.5 0.7 0.3
1 0.7 0.3
1.5 0.7 0.3
2 0.7 0.3
2.5 0.7 0.3
3 0.7 0.3
3.5 0.7 0.3
4 0.7 0.3
4.5 0.7 0.3
5 0.7 0.3
0 0.75 0.3
0.5 0.75 0.3
1 0.75 0.3
1.5 0.75 0.3
2 0.75 0.3
2.5 0.75 0.3
3 0.75 0.3
3.5 0.75 0.3
4 0.75 0.3
4.5 0.75 0.3
5 0.75 0.3
0 0.8 0.3
0.5 0.8 0.3
1 0.8 0.3
1.5 0.8 0.3
2 0.8 0.3
2.5 0.8 0.3
3 0.8 0.3
3.5 0.8 0.3
4 0.8 0.3
4.5 0.8 0.3
5 0.8 0.3
0 0.85 0.3
0.5 0.85 0.3
1 0.85 0.3
1.5 0.85 0.3
2 0.85 0.3
2.5 0.85 0.3
3 0.85 0.3
3.5 0.85 0.3
4 0.85 0.3
4.5 0.85 0.3
5 0.85 0.3
0 0.9 0.3
0.5 0.9 0.3
1 0.9 0.3
1.5 0.9 0.3
2 0.9 0.3
2.5 0.9 0.3
3 0.9 0.3
3.5 0.9 0.3
4 0.9 0.3
4.5 0.9 0.3
5 0.9 0.3
0 0.95 0.3
0.5 0.95 0.3
1 0.95 0.3
1.5 0.95 0.3
2 0.95 0.3
2.5 0.95 0.3
3 0.95 0.3
3.5 0.95 0.3
4 0.95 0.3
4.5 0.95 0.3
5 0.95 0.3
0 1 0.3
0.5 1 0.3
1 1 0.3
1.5 1 0.3
2 1 0.3
2.5 1 0.3
3 1 0.3
3.5 1 0.3
4 1 0.3
4.5 1 0.3
5 1 0.3
0 0 0.4
[...]
CELL_DATA 2000
SCALARS pressure float 1
LOOKUP_TABLE default
0
0
0.906337
1.00441
0.824126
0.663085
0.506275
0.350556
0.194331
0.0242527
0
0
0.904713
0.996694
0.823472
0.662954
0.506245
0.350551
0.194358
0.0268246
0
0
0.867146
0.992138
0.822541
0.66277
0.506201
0.350546
0.194445
0.0291931
0
0
0.855844
0.981884
0.821436
0.662546
0.506147
0.350541
0.194566
0.0311681
1.59262
1.72848
0.864976
0.972616
0.820193
0.662291
0.506085
0.350536
0.194699
0.0327725
1.58866
1.71914
0.893955
0.965527
0.818925
0.662013
0.506015
0.350528
0.194827
0.034048
1.5804
1.70487
0.928974
0.960807
0.817715
0.661723
0.505939
0.350518
0.194941
0.0350288
1.56864
1.68848
0.966863
0.958072
0.816617
0.661429
0.505859
0.350505
0.195031
0.0357415
1.55623
1.67193
1.00251
0.95687
0.815655
0.661136
0.505776
0.350488
0.195091
0.0362056
1.54519
1.65633
1.03464
0.956767
0.814832
0.660851
0.505693
0.350468
0.195119
0.0364339
1.53628
1.6422
1.06292
0.957412
0.814135
0.660577
0.505609
0.350444
0.195113
0.0364327
1.52998
1.62973
1.08731
0.958519
0.81355
0.660317
0.505527
0.350418
0.195072
0.0362021
1.52678
1.61899
1.10799
0.959852
0.813055
0.660073
0.505448
0.350389
0.194999
0.0357357
1.52678
1.60993
1.12516
0.961223
0.81263
0.659847
0.505373
0.350358
0.194898
0.0350208
1.52978
1.60252
1.13906
0.96248
0.812255
0.659639
0.505303
0.350327
0.194774
0.0340379
1.53556
1.59671
1.14995
0.963506
0.811913
0.659449
0.505239
0.350298
0.194635
0.0327605
1.54358
1.59249
1.15803
0.964208
0.811586
0.659279
0.505182
0.350271
0.194494
0.0311545
1.55201
1.58978
1.16352
0.964523
0.811265
0.659128
0.505133
0.350248
0.194366
0.0291781
1.55811
1.58865
1.16661
0.964433
0.81095
0.659
0.505094
0.350232
0.194273
0.0268084
1.56104
1.58884
1.16727
0.963971
0.810665
0.658904
0.505067
0.350222
0.194242
0.0242357
0
0
0.915394
1.00063
0.823906
0.663022
0.506261
0.350568
0.19453
0.0287601
0
0
0.912116
0.993952
0.823046
0.66286
0.506224
0.350561
0.194562
0.0322829
0
0
0.875927
0.98971
0.822143
0.662674
0.50618
0.350557
0.194679
0.0347907
0
0
0.887585
0.98216
0.821032
0.662454
0.506128
0.350553
0.194815
0.0368081
1.57627
1.74176
0.826185
0.971626
0.819816
0.662208
0.506067
0.350548
0.194957
0.0384409
1.57158
1.75122
0.850654
0.962357
0.818578
0.661943
0.506
0.350542
0.195091
0.0397353
1.56388
1.72782
0.900508
0.957926
0.817429
0.661667
0.505928
0.350533
0.195207
0.0407285
1.55397
1.70365
0.947491
0.956123
0.816409
0.661388
0.505851
0.350521
0.195299
0.0414491
1.54266
1.68226
0.99011
0.955642
0.815527
0.661112
0.505772
0.350506
0.195361
0.041918
1.53144
1.66359
1.02696
0.956066
0.814777
0.660842
0.505692
0.350487
0.19539
0.0421485
1.52239
1.64732
1.05835
0.957097
0.814146
0.660584
0.505613
0.350464
0.195384
0.0421474
1.5161
1.63333
1.08481
0.958483
0.813616
0.660339
0.505534
0.350438
0.195343
0.0419146
1.51276
1.62147
1.10685
0.960019
0.813169
0.660109
0.505459
0.350409
0.195269
0.0414436
1.51246
1.61158
1.12492
0.961537
0.812785
0.659895
0.505387
0.350379
0.195166
0.0407208
1.51535
1.60346
1.13938
0.962899
0.812443
0.659698
0.505319
0.350349
0.195039
0.0397257
1.52112
1.59684
1.15055
0.964
0.812127
0.659517
0.505258
0.350319
0.194895
0.0384295
1.52794
1.59163
1.15873
0.964756
0.811822
0.659353
0.505203
0.350292
0.194745
0.0367951
1.53455
1.58795
1.16416
0.965108
0.811518
0.659207
0.505155
0.350269
0.194602
0.0347763
1.54028
1.58614
1.16705
0.964999
0.8112
0.659078
0.505116
0.350251
0.19448
0.0322674
1.54458
1.58701
1.16747
0.964358
0.810846
0.658961
0.505083
0.350241
0.194444
0.0287436
0
0
0.925608
0.999747
0.823828
0.662974
0.506249
0.35059
0.194834
0.0320983
0
0
0.921296
0.994025
0.822962
0.662808
0.506211
0.350583
0.194875
0.0357712
0
0
0.891751
0.990906
0.822101
0.662622
0.506167
0.35058
0.195003
0.0383673
0
0
0.904975
0.984987
0.82106
0.662408
0.506116
0.350577
0.195149
0.0404428
1.56
1.74017
0.813631
0.974762
0.819886
0.662169
0.506057
0.350574
0.195298
0.0421136
1.55471
1.77607
0.802556
0.96321
0.818626
0.66191
0.505991
0.350569
0.195438
0.0434335
1.5494
1.76456
0.857275
0.955814
0.817399
0.661641
0.505921
0.350561
0.195559
0.0444438
1.54716
1.73325
0.920751
0.953334
0.816322
0.661368
0.505847
0.35055
0.195654
0.0451755
1.54644
1.70337
0.972744
0.953353
0.815429
0.6611
0.505771
0.350535
0.195717
0.045651
1.54543
1.67788
1.01572
0.954354
0.814698
0.660839
0.505694
0.350517
0.195747
0.0458847
1.54329
1.65674
1.05139
0.95587
0.814097
0.66059
0.505617
0.350495
0.195741
0.0458836
1.54001
1.63951
1.08087
0.957649
0.813602
0.660354
0.505541
0.35047
0.1957
0.0456478
1.53652
1.62565
1.10504
0.959497
0.813189
0.660133
0.505468
0.350441
0.195624
0.0451702
1.53283
1.61476
1.12458
0.961262
0.812837
0.659927
0.505399
0.350411
0.195519
0.0444364
1.52833
1.60633
1.14002
0.962818
0.812525
0.659737
0.505333
0.350381
0.195388
0.0434243
1.52338
1.59977
1.1517
0.964073
0.812235
0.659563
0.505273
0.350351
0.195238
0.0421026
1.51933
1.59429
1.15992
0.964955
0.811955
0.659405
0.50522
0.350324
0.195081
0.0404302
1.51851
1.58976
1.16514
0.965388
0.811669
0.659262
0.505173
0.3503
0.194927
0.0383534
1.52239
1.58713
1.16782
0.965303
0.811354
0.659133
0.505133
0.350281
0.194794
0.0357562
1.52785
1.58773
1.16811
0.96464
0.81099
0.659012
0.505099
0.35027
0.194749
0.0320823
0
0
0.929911
1.00022
0.823849
0.662948
0.506241
0.350612
0.195097
0.0341928
0
0
0.925424
0.99481
0.822995
0.662782
0.506204
0.350606
0.19514
0.037897
0
0
0.895393
0.992264
0.822166
0.662598
0.50616
0.350604
0.195272
0.040526
0
0
0.903945
0.987077
0.821176
0.662388
0.506109
0.350601
0.195424
0.0426295
1.55186
1.75381
0.808515
0.977213
0.820053
0.662155
0.506052
0.350599
0.195577
0.0443224
1.54695
1.79522
0.783064
0.965246
0.818822
0.661902
0.505988
0.350594
0.195721
0.045659
1.54452
1.78996
0.82282
0.95636
0.817554
0.661637
0.505919
0.350587
0.195845
0.0466814
1.54959
1.75792
0.892015
0.952366
0.816383
0.661366
0.505846
0.350577
0.195941
0.0474215
1.56143
1.72215
0.954891
0.951842
0.815408
0.661097
0.505772
0.350563
0.196007
0.0479023
1.57523
1.68998
1.00479
0.952833
0.814631
0.660838
0.505696
0.350546
0.196037
0.0481384
1.58526
1.66214
1.04478
0.954487
0.814009
0.660591
0.505621
0.350524
0.196031
0.0481374
1.58844
1.63961
1.07737
0.956457
0.813511
0.660358
0.505546
0.350499
0.195989
0.0478991
1.58489
1.62328
1.10387
0.95852
0.813105
0.66014
0.505475
0.350471
0.195913
0.0474163
1.57451
1.61269
1.12494
0.960526
0.812772
0.659939
0.505406
0.350441
0.195805
0.0466742
1.55736
1.60598
1.14102
0.96235
0.812495
0.659755
0.505343
0.35041
0.195671
0.04565
1.53699
1.60089
1.15276
0.963851
0.812247
0.659586
0.505284
0.35038
0.195519
0.0443117
1.5201
1.59623
1.16087
0.964908
0.811999
0.659433
0.505231
0.350352
0.195357
0.0426172
1.51215
1.59194
1.16596
0.965443
0.811733
0.659293
0.505185
0.350328
0.195198
0.0405124
1.51354
1.58902
1.16852
0.965407
0.811429
0.659166
0.505145
0.350309
0.195061
0.0378823
1.51893
1.58945
1.16873
0.964759
0.811068
0.659045
0.505111
0.350297
0.195013
0.0341771
0
0
0.930499
1.00065
0.823884
0.662937
0.506238
0.350626
0.195244
0.0351941
0
0
0.925472
0.995342
0.823038
0.662771
0.506201
0.35062
0.195288
0.0389061
0
0
0.894063
0.993003
0.822224
0.662589
0.506157
0.350618
0.195422
0.0415459
0
0
0.90074
0.988075
0.821257
0.662382
0.506107
0.350616
0.195575
0.0436601
1.54903
1.76349
0.803736
0.978392
0.820159
0.662151
0.50605
0.350614
0.195731
0.0453625
1.54452
1.80636
0.776403
0.966413
0.81895
0.661902
0.505986
0.35061
0.195876
0.0467067
1.54444
1.80243
0.811528
0.957336
0.817694
0.66164
0.505918
0.350603
0.196001
0.047735
1.55477
1.77026
0.87643
0.95291
0.816509
0.661372
0.505847
0.350593
0.196099
0.0484793
1.57408
1.73221
0.941252
0.951736
0.815478
0.661103
0.505773
0.35058
0.196165
0.0489627
1.59672
1.69622
0.996419
0.952186
0.814623
0.66084
0.505698
0.350562
0.196196
0.0492002
1.61534
1.66428
1.041
0.953547
0.813937
0.660589
0.505623
0.350541
0.19619
0.0491992
1.62344
1.63813
1.07635
0.955466
0.813402
0.660354
0.505549
0.350516
0.196148
0.0489596
1.61979
1.62019
1.10406
0.957687
0.813001
0.660138
0.505478
0.350488
0.196071
0.0484741
1.60429
1.61017
1.12543
0.959947
0.8127
0.659941
0.50541
0.350458
0.195962
0.0477279
1.57829
1.60477
1.14155
0.961999
0.812456
0.659761
0.505347
0.350428
0.195827
0.0466978
1.54885
1.60105
1.15329
0.963662
0.812235
0.659596
0.505289
0.350397
0.195673
0.0453519
1.52436
1.59729
1.16139
0.964826
0.812007
0.659445
0.505237
0.350369
0.195509
0.043648
1.51123
1.59333
1.16643
0.965426
0.811754
0.659307
0.505191
0.350345
0.195349
0.0415324
1.51045
1.59035
1.16893
0.965424
0.811457
0.659181
0.505151
0.350325
0.195209
0.0388915
1.5156
1.59074
1.1691
0.964789
0.811099
0.65906
0.505117
0.350313
0.195161
0.0351785
0
0
0.930499
1.00065
0.823884
0.662937
0.506238
0.350626
0.195244
0.0351941
0
0
0.925472
0.995342
0.823038
0.662771
0.506201
0.35062
0.195288
0.0389061
0
0
0.894063
0.993003
0.822224
0.662589
0.506157
0.350618
0.195422
0.0415459
0
0
0.90074
0.988075
0.821257
0.662382
0.506107
0.350616
0.195575
0.0436601
1.54903
1.76349
0.803736
0.978392
0.820159
0.662151
0.50605
0.350614
0.195731
0.0453625
1.54452
1.80636
0.776403
0.966413
0.81895
0.661902
0.505986
0.35061
0.195876
0.0467067
1.54444
1.80243
0.811528
0.957336
0.817694
0.66164
0.505918
0.350603
0.196001
0.047735
1.55477
1.77026
0.87643
0.95291
0.816509
0.661372
0.505847
0.350593
0.196099
0.0484793
1.57408
1.73221
0.941252
0.951736
0.815478
0.661103
0.505773
0.35058
0.196165
0.0489627
1.59672
1.69622
0.996419
0.952186
0.814623
0.66084
0.505698
0.350562
0.196196
0.0492002
1.61534
1.66428
1.041
0.953547
0.813937
0.660589
0.505623
0.350541
0.19619
0.0491992
1.62344
1.63813
1.07635
0.955466
0.813402
0.660354
0.505549
0.350516
0.196148
0.0489596
1.61979
1.62019
1.10406
0.957687
0.813001
0.660138
0.505478
0.350488
0.196071
0.0484741
1.60429
1.61017
1.12543
0.959947
0.8127
0.659941
0.50541
0.350458
0.195962
0.0477279
1.57829
1.60477
1.14155
0.961999
0.812456
0.659761
0.505347
0.350428
0.195827
0.0466978
1.54885
1.60105
1.15329
0.963662
0.812235
0.659596
0.505289
0.350397
0.195673
0.0453519
1.52436
1.59729
1.16139
0.964826
0.812007
0.659445
0.505237
0.350369
0.195509
0.043648
1.51123
1.59333
1.16643
0.965426
0.811754
0.659307
0.505191
0.350345
0.195349
0.0415324
1.51045
1.59035
1.16893
0.965424
0.811457
0.659181
0.505151
0.350325
0.195209
0.0388915
1.5156
1.59074
1.1691
0.964789
0.811099
0.65906
0.505117
0.350313
0.195161
0.0351785
0
0
0.929911
1.00022
0.823849
0.662948
0.506241
0.350612
0.195097
0.0341928
0
0
0.925424
0.99481
0.822995
0.662782
0.506204
0.350606
0.19514
0.037897
0
0
0.895393
0.992264
0.822166
0.662598
0.50616
0.350604
0.195272
0.040526
0
0
0.903945
0.987077
0.821176
0.662388
0.506109
0.350601
0.195424
0.0426295
1.55186
1.75381
0.808515
0.977213
0.820053
0.662155
0.506052
0.350599
0.195577
0.0443224
1.54695
1.79522
0.783064
0.965246
0.818822
0.661902
0.505988
0.350594
0.195721
0.045659
1.54452
1.78996
0.82282
0.95636
0.817554
0.661637
0.505919
0.350587
0.195845
0.0466814
1.54959
1.75792
0.892015
0.952366
0.816383
0.661366
0.505846
0.350577
0.195941
0.0474215
1.56143
1.72215
0.954891
0.951842
0.815408
0.661097
0.505772
0.350563
0.196007
0.0479023
1.57523
1.68998
1.00479
0.952833
0.814631
0.660838
0.505696
0.350546
0.196037
0.0481384
1.58526
1.66214
1.04478
0.954487
0.814009
0.660591
0.505621
0.350524
0.196031
0.0481374
1.58844
1.63961
1.07737
0.956457
0.813511
0.660358
0.505546
0.350499
0.195989
0.0478991
1.58489
1.62328
1.10387
0.95852
0.813105
0.66014
0.505475
0.350471
0.195913
0.0474163
1.57451
1.61269
1.12494
0.960526
0.812772
0.659939
0.505406
0.350441
0.195805
0.0466742
1.55736
1.60598
1.14102
0.96235
0.812495
0.659755
0.505343
0.35041
0.195671
0.04565
1.53699
1.60089
1.15276
0.963851
0.812247
0.659586
0.505284
0.35038
0.195519
0.0443117
1.5201
1.59623
1.16087
0.964908
0.811999
0.659433
0.505231
0.350352
0.195357
0.0426172
1.51215
1.59194
1.16596
0.965443
0.811733
0.659293
0.505185
0.350328
0.195198
0.0405124
1.51354
1.58902
1.16852
0.965407
0.811429
0.659166
0.505145
0.350309
0.195061
0.0378823
1.51893
1.58945
1.16873
0.964759
0.811068
0.659045
0.505111
0.350297
0.195013
0.0341771
0
0
0.925608
0.999747
0.823828
0.662974
0.506249
0.35059
0.194834
0.0320983
0
0
0.921296
0.994025
0.822962
0.662808
0.506211
0.350583
0.194875
0.0357712
0
0
0.891751
0.990906
0.822101
0.662622
0.506167
0.35058
0.195003
0.0383673
0
0
0.904975
0.984987
0.82106
0.662408
0.506116
0.350577
0.195149
0.0404428
1.56
1.74017
0.813631
0.974762
0.819886
0.662169
0.506057
0.350574
0.195298
0.0421136
1.55471
1.77607
0.802556
0.96321
0.818626
0.66191
0.505991
0.350569
0.195438
0.0434335
1.5494
1.76456
0.857275
0.955814
0.817399
0.661641
0.505921
0.350561
0.195559
0.0444438
1.54716
1.73325
0.920751
0.953334
0.816322
0.661368
0.505847
0.35055
0.195654
0.0451755
1.54644
1.70337
0.972744
0.953353
0.815429
0.6611
0.505771
0.350535
0.195717
0.045651
1.54543
1.67788
1.01572
0.954354
0.814698
0.660839
0.505694
0.350517
0.195747
0.0458847
1.54329
1.65674
1.05139
0.95587
0.814097
0.66059
0.505617
0.350495
0.195741
0.0458836
1.54001
1.63951
1.08087
0.957649
0.813602
0.660354
0.505541
0.35047
0.1957
0.0456478
1.53652
1.62565
1.10504
0.959497
0.813189
0.660133
0.505468
0.350441
0.195624
0.0451702
1.53283
1.61476
1.12458
0.961262
0.812837
0.659927
0.505399
0.350411
0.195519
0.0444364
1.52833
1.60633
1.14002
0.962818
0.812525
0.659737
0.505333
0.350381
0.195388
0.0434243
1.52338
1.59977
1.1517
0.964073
0.812235
0.659563
0.505273
0.350351
0.195238
0.0421026
1.51933
1.59429
1.15992
0.964955
0.811955
0.659405
0.50522
0.350324
0.195081
0.0404302
1.51851
1.58976
1.16514
0.965388
0.811669
0.659262
0.505173
0.3503
0.194927
0.0383534
1.52239
1.58713
1.16782
0.965303
0.811354
0.659133
0.505133
0.350281
0.194794
0.0357562
1.52785
1.58773
1.16811
0.96464
0.81099
0.659012
0.505099
0.35027
0.194749
0.0320823
0
0
0.915394
1.00063
0.823906
0.663022
0.506261
0.350568
0.19453
0.0287601
0
0
0.912116
0.993952
0.823046
0.66286
0.506224
0.350561
0.194562
0.0322829
0
0
0.875927
0.98971
0.822143
0.662674
0.50618
0.350557
0.194679
0.0347907
0
0
0.887585
0.98216
0.821032
0.662454
0.506128
0.350553
0.194815
0.0368081
1.57627
1.74176
0.826185
0.971626
0.819816
0.662208
0.506067
0.350548
0.194957
0.0384409
1.57158
1.75122
0.850654
0.962357
0.818578
0.661943
0.506
0.350542
0.195091
0.0397353
1.56388
1.72782
0.900508
0.957926
0.817429
0.661667
0.505928
0.350533
0.195207
0.0407285
1.55397
1.70365
0.947491
0.956123
0.816409
0.661388
0.505851
0.350521
0.195299
0.0414491
1.54266
1.68226
0.99011
0.955642
0.815527
0.661112
0.505772
0.350506
0.195361
0.041918
1.53144
1.66359
1.02696
0.956066
0.814777
0.660842
0.505692
0.350487
0.19539
0.0421485
1.52239
1.64732
1.05835
0.957097
0.814146
0.660584
0.505613
0.350464
0.195384
0.0421474
1.5161
1.63333
1.08481
0.958483
0.813616
0.660339
0.505534
0.350438
0.195343
0.0419146
1.51276
1.62147
1.10685
0.960019
0.813169
0.660109
0.505459
0.350409
0.195269
0.0414436
1.51246
1.61158
1.12492
0.961537
0.812785
0.659895
0.505387
0.350379
0.195166
0.0407208
1.51535
1.60346
1.13938
0.962899
0.812443
0.659698
0.505319
0.350349
0.195039
0.0397257
1.52112
1.59684
1.15055
0.964
0.812127
0.659517
0.505258
0.350319
0.194895
0.0384295
1.52794
1.59163
1.15873
0.964756
0.811822
0.659353
0.505203
0.350292
0.194745
0.0367951
1.53455
1.58795
1.16416
0.965108
0.811518
0.659207
0.505155
0.350269
0.194602
0.0347763
1.54028
1.58614
1.16705
0.964999
0.8112
0.659078
0.505116
0.350251
0.19448
0.0322674
1.54458
1.58701
1.16747
0.964358
0.810846
0.658961
0.505083
0.350241
0.194444
0.0287436
0
0
0.906337
1.00441
0.824126
0.663085
0.506275
0.350556
0.194331
0.0242527
0
0
0.904713
0.996694
0.823472
0.662954
0.506245
0.350551
0.194358
0.0268246
0
0
0.867146
0.992138
0.822541
0.66277
0.506201
0.350546
0.194445
0.0291931
0
0
0.855844
0.981884
0.821436
0.662546
0.506147
0.350541
0.194566
0.0311681
1.59262
1.72848
0.864976
0.972616
0.820193
0.662291
0.506085
0.350536
0.194699
0.0327725
1.58866
1.71914
0.893955
0.965527
0.818925
0.662013
0.506015
0.350528
0.194827
0.034048
1.5804
1.70487
0.928974
0.960807
0.817715
0.661723
0.505939
0.350518
0.194941
0.0350288
1.56864
1.68848
0.966863
0.958072
0.816617
0.661429
0.505859
0.350505
0.195031
0.0357415
1.55623
1.67193
1.00251
0.95687
0.815655
0.661136
0.505776
0.350488
0.195091
0.0362056
1.54519
1.65633
1.03464
0.956767
0.814832
0.660851
0.505693
0.350468
0.195119
0.0364339
1.53628
1.6422
1.06292
0.957412
0.814135
0.660577
0.505609
0.350444
0.195113
0.0364327
1.52998
1.62973
1.08731
0.958519
0.81355
0.660317
0.505527
0.350418
0.195072
0.0362021
1.52678
1.61899
1.10799
0.959852
0.813055
0.660073
0.505448
0.350389
0.194999
0.0357357
1.52678
1.60993
1.12516
0.961223
0.81263
0.659847
0.505373
0.350358
0.194898
0.0350208
1.52978
1.60252
1.13906
0.96248
0.812255
0.659639
0.505303
0.350327
0.194774
0.0340379
1.53556
1.59671
1.14995
0.963506
0.811913
0.659449
0.505239
0.350298
0.194635
0.0327605
1.54358
1.59249
1.15803
0.964208
0.811586
0.659279
0.505182
0.350271
0.194494
0.0311545
1.55201
1.58978
1.16352
0.964523
0.811265
0.659128
0.505133
0.350248
0.194366
0.0291781
1.55811
1.58865
1.16661
0.964433
0.81095
0.659
0.505094
0.350232
0.194273
0.0268084
1.56104
1.58884
1.16727
0.963971
0.810665
0.658904
0.505067
0.350222
0.194242
0.0242357

VECTORS velocity float
0 0 0
0 0 0
0.789681 -0.0326058 -0.000629187
0.686088 -0.00313489 0.000763733
0.720706 -0.00075445 9.14398e-05
0.729371 -0.000167159 1.8754e-05
0.731306 -3.77421e-05 4.02756e-06
0.731771 -9.8421e-06 -1.96317e-06
0.732215 -1.50439e-05 -3.70826e-05
0.748033 -0.00108327 -0.000929772
0 0 0
0 0 0
-0.142275 -0.0968095 -0.000375208
0.697228 -0.0127044 0.000595892
0.767574 -0.00246248 0.000111189
0.778407 -0.000531262 2.32595e-05
0.780677 -0.000119655 4.97807e-06
0.781218 -3.11532e-05 -1.85901e-06
0.781793 -5.5212e-05 -3.99785e-05
0.786983 -0.00209482 -0.00109113
0 0 0
0 0 0
0.809511 -0.163806 0.000912692
0.731317 -0.0226265 0.000511965
0.77174 -0.00427574 9.74757e-05
0.781636 -0.000918058 2.23739e-05
0.783828 -0.000206728 4.89105e-06
0.784351 -5.35202e-05 -1.97917e-06
0.784845 -9.65141e-05 -4.27394e-05
0.789135 -0.00185599 -0.001117
0 0 0
0 0 0
-0.127632 -0.232729 0.000631038
0.714559 -0.031201 0.000134929
0.772574 -0.00595889 8.3301e-05
0.782042 -0.00128314 2.05755e-05
0.784065 -0.000289297 4.53707e-06
0.784547 -7.41563e-05 -2.15999e-06
0.784954 -0.000120222 -4.46353e-05
0.789337 -0.00153291 -0.00112881
0.430252 -0.0181695 -0.039365
0.863987 0.00618315 -0.0234771
0.815952 -0.261557 0.0112607
0.740322 -0.0394983 0.00088943
0.774439 -0.00747471 9.22671e-05
0.782353 -0.0016128 1.85425e-05
0.784137 -0.000364255 4.02314e-06
0.784565 -9.2181e-05 -2.36193e-06
0.784897 -0.000128654 -4.56893e-05
0.789417 -0.00123754 -0.00113541
0.502773 -0.0488116 -0.0465526
0.975868 0.0113989 -0.0211862
0.919011 -0.246333 0.0134415
0.758977 -0.044575 0.00124748
0.776452 -0.00871769 9.18619e-05
0.782716 -0.00189682 1.58199e-05
0.784215 -0.000429519 3.37119e-06
0.784577 -0.000107104 -2.58325e-06
0.784847 -0.000125367 -4.63588e-05
0.78948 -0.000972685 -0.0011395
0.547849 -0.0670432 -0.0529642
0.978795 0.00811213 -0.0170684
0.927293 -0.223973 0.0083375
0.771062 -0.0472816 0.000918894
0.77852 -0.00966933 7.15871e-05
0.783125 -0.00212791 1.23375e-05
0.784305 -0.000483386 2.61365e-06
0.784593 -0.0001186 -2.81406e-06
0.78481 -0.00011314 -4.67961e-05
0.789528 -0.00073273 -0.00114208
0.585744 -0.0727267 -0.0588523
0.973373 0.00366903 -0.0145766
0.925583 -0.200286 0.00467984
0.781048 -0.0481502 0.000582155
0.780663 -0.0103192 4.96079e-05
0.783572 -0.00230055 8.63227e-06
0.784403 -0.000524499 1.78789e-06
0.784612 -0.000126487 -3.04759e-06
0.784784 -9.4237e-05 -4.70858e-05
0.789565 -0.000511776 -0.00114367
0.616549 -0.0677588 -0.0639601
0.968204 0.000122953 -0.0133114
0.923304 -0.177145 0.0025545
0.789797 -0.0475674 0.000342613
0.782821 -0.0106673 2.86086e-05
0.784041 -0.00241114 4.86416e-06
0.784508 -0.000551868 9.22913e-07
0.784633 -0.000130705 -3.27814e-06
0.78477 -7.05683e-05 -4.72751e-05
0.789589 -0.00030413 -0.0011446
0.640097 -0.0542489 -0.0681037
0.963664 -0.00186445 -0.012714
0.921163 -0.155287 0.00120971
0.797422 -0.0458417 0.000174982
0.784927 -0.0107241 1.00269e-05