# vtk DataFile Version 2.0
TestTestTest
ASCII

DATASET STRUCTURED_GRID
DIMENSIONS 11 21 11
POINTS 2541 float
0 0 0
0.5 0 0
1 0 0
1.5 0 0
2 0 0
2.5 0 0
3 0 0
3.5 0 0
4 0 0
4.5 0 0
5 0 0
0 0.05 0
0.5 0.05 0
1 0.05 0
1.5 0.05 0
2 0.05 0
2.5 0.05 0
3 0.05 0
3.5 0.05 0
4 0.05 0
4.5 0.05 0
5 0.05 0
0 0.1 0
0.5 0.1 0
1 0.1 0
1.5 0.1 0
2 0.1 0
2.5 0.1 0
3 0.1 0
3.5 0.1 0
4 0.1 0
4.5 0.1 0
5 0.1 0
0 0.15 0
0.5 0.15 0
1 0.15 0
1.5 0.15 0
2 0.15 0
2.5 0.15 0
3 0.15 0
3.5 0.15 0
4 0.15 0
4.5 0.15 0
5 0.15 0
0 0.2 0
0.5 0.2 0
1 0.2 0
1.5 0.2 0
2 0.2 0
2.5 0.2 0
3 0.2 0
3.5 0.2 0
4 0.2 0
4.5 0.2 0
5 0.2 0
0 0.25 0
0.5 0.25 0
1 0.25 0
1.5 0.25 0
2 0.25 0
2.5 0.25 0
3 0.25 0
3.5 0.25 0
4 0.25 0
4.5 0.25 0
5 0.25 0
0 0.3 0
0.5 0.3 0
1 0.3 0
1.5 0.3 0
2 0.3 0
2.5 0.3 0
3 0.3 0
3.5 0.3 0
4 0.3 0
4.5 0.3 0
5 0.3 0
0 0.35 0
0.5 0.35 0
1 0.35 0
1.5 0.35 0
2 0.35 0
2.5 0.35 0
3 0.35 0
3.5 0.35 0
4 0.35 0
4.5 0.35 0
5 0.35 0
0 0.4 0
0.5 0.4 0
1 0.4 0
1.5 0.4 0
2 0.4 0
2.5 0.4 0
3 0.4 0
3.5 0.4 0
4 0.4 0
4.5 0.4 0
5 0.4 0
0 0.45 0
0.5 0.45 0
1 0.45 0
1.5 0.45 0
2 0.45 0
2.5 0.45 0
3 0.45 0
3.5 0.45 0
4 0.45 0
4.5 0.45 0
5 0.45 0
0 0.5 0
0.5 0.5 0
1 0.5 0
1.5 0.5 0
2 0.5 0
2.5 0.5 0
3 0.5 0
3.5 0.5 0
4 0.5 0
4.5 0.5 0
5 0.5 0
0 0.55 0
0.5 0.55 0
1 0.55 0
1.5 0.55 0
2 0.55 0
2.5 0.55 0
3 0.55 0
3.5 0.55 0
4 0.55 0
4.5 0.55 0
5 0.55 0
0 0.6 0
0.5 0.6 0
1 0.6 0
1.5 0.6 0
2 0.6 0
2.5 0.6 0
3 0.6 0
3.5 0.6 0
4 0.6 0
4.5 0.6 0
5 0.6 0
0 0.65 0
0.5 0.65 0
1 0.65 0
1.5 0.65 0
2 0.65 0
2.5 0.65 0
3 0.65 0
3.5 0.65 0
4 0.65 0
4.5 0.65 0
5 0.65 0
0 0.7 0
0.5 0.7 0
1 0.7 0
1.5 0.7 0
2 0.7 0
2.5 0.7 0
3 0.7 0
3.5 0.7 0
4 0.7 0
4.5 0.7 0
5 0.7 0
0 0.75 0
0.5 0.75 0
1 0.75 0
1.5 0.75 0
2 0.75 0
2.5 0.75 0
3 0.75 0
3.5 0.75 0
4 0.75 0
4.5 0.75 0
5 0.75 0
0 0.8 0
0.5 0.8 0
1 0.8 0
1.5 0.8 0
2 0.8 0
2.5 0.8 0
3 0.8 0
3.5 0.8 0
4 0.8 0
4.5 0.8 0
5 0.8 0
0 0.85 0
0.5 0.85 0
1 0.85 0
1.5 0.85 0
2 0.85 0
2.5 0.85 0
3 0.85 0
3.5 0.85 0
4 0.85 0
4.5 0.85 0
5 0.85 0
0 0.9 0
0.5 0.9 0
1 0.9 0
1.5 0.9 0
2 0.9 0
2.5 0.9 0
3 0.9 0
3.5 0.9 0
4 0.9 0
4.5 0.9 0
5 0.9 0
0 0.95 0
0.5 0.95 0
1 0.95 0
1.5 0.95 0
2 0.95 0
2.5 0.95 0
3 0.95 0
3.5 0.95 0
4 0.95 0
4.5 0.95 0
5 0.95 0
0 1 0
0.5 1 0
1 1 0
1.5 1 0
2 1 0
2.5 1 0
3 1 0
3.5 1 0
4 1 0
4.5 1 0
5 1 0
0 0 0.1
0.5 0 0.1
1 0 0.1
1.5 0 0.1
2 0 0.1
2.5 0 0.1
3 0 0.1
3.5 0 0.1
4 0 0.1
4.5 0 0.1
5 0 0.1
0 0.05 0.1
0.5 0.05 0.1
1 0.05 0.1
1.5 0.05 0.1
2 0.05 0.1
2.5 0.05 0.1
3 0.05 0.1
3.5 0.05 0.1
4 0.05 0.1
4.5 0.05 0.1
5 0.05 0.1
0 0.1 0.1
0.5 0.1 0.1
1 0.1 0.1
1.5 0.1 0.1
2 0.1 0.1
2.5 0.1 0.1
3 0.1 0.1
3.5 0.1 0.1
4 0.1 0.1
4.5 0.1 0.1
5 0.1 0.1
0 0.15 0.1
0.5 0.15 0.1
1 0.15 0.1
1.5 0.15 0.1
2 0.15 0.1
2.5 0.15 0.1
3 0.15 0.1
3.5 0.15 0.1
4 0.15 0.1
4.5 0.15 0.1
5 0.15 0.1
0 0.2 0.1
0.5 0.2 0.1
1 0.2 0.1
1.5 0.2 0.1
2 0.2 0.1
2.5 0.2 0.1
3 0.2 0.1
3.5 0.2 0.1
4 0.2 0.1
4.5 0.2 0.1
5 0.2 0.1
0 0.25 0.1
0.5 0.25 0.1
1 0.25 0.1
1.5 0.25 0.1
2 0.25 0.1
2.5 0.25 0.1
3 0.25 0.1
3.5 0.25 0.1
4 0.25 0.1
4.5 0.25 0.1
5 0.25 0.1
0 0.3 0.1
0.5 0.3 0.1
1 0.3 0.1
1.5 0.3 0.1
2 0.3 0.1
2.5 0.3 0.1
3 0.3 0.1
3.5 0.3 0.1
4 0.3 0.1
4.5 0.3 0.1
5 0.3 0.1
0 0.35 0.1
0.5 0.35 0.1
1 0.35 0.1
1.5 0.35 0.1
2 0.35 0.1
2.5 0.35 0.1
3 0.35 0.1
3.5 0.35 0.1
4 0.35 0.1
4.5 0.35 0.1
5 0.35 0.1
0 0.4 0.1
0.5 0.4 0.1
1 0.4 0.1
1.5 0.4 0.1
2 0.4 0.1
2.5 0.4 0.1
3 0.4 0.1
3.5 0.4 0.1
4 0.4 0.1
4.5 0.4 0.1
5 0.4 0.1
0 0.45 0.1
0.5 0.45 0.1
1 0.45 0.1
1.5 0.45 0.1
2 0.45 0.1
2.5 0.45 0.1
3 0.45 0.1
3.5 0.45 0.1
4 0.45 0.1
4.5 0.45 0.1
5 0.45 0.1
0 0.5 0.1
0.5 0.5 0.1
1 0.5 0.1
1.5 0.5 0.1
2 0.5 0.1
2.5 0.5 0.1
3 0.5 0.1
3.5 0.5 0.1
4 0.5 0.1
4.5 0.5 0.1
5 0.5 0.1
0 0.55 0.1
0.5 0.55 0.1
1 0.55 0.1
1.5 0.55 0.1
2 0.55 0.1
2.5 0.55 0.1
3 0.55 0.1
3.5 0.55 0.1
4 0.55 0.1
4.5 0.55 0.1
5 0.55 0.1
0 0.6 0.1
0.5 0.6 0.1
1 0.6 0.1
1.5 0.6 0.1
2 0.6 0.1
2.5 0.6 0.1
3 0.6 0.1
3.5 0.6 0.1
4 0.6 0.1
4.5 0.6 0.1
5 0.6 0.1
0 0.65 0.1
0.5 0.65 0.1
1 0.65 0.1
1.5 0.65 0.1
2 0.65 0.1
2.5 0.65 0.1
3 0.65 0.1
3.5 0.65 0.1
4 0.65 0.1
4.5 0.65 0.1
5 0.65 0.1
0 0.7 0.1
0.5 0.7 0.1
1 0.7 0.1
1.5 0.7 0.1
2 0.7 0.1
2.5 0.7 0.1
3 0.7 0.1
3.5 0.7 0.1
4 0.7 0.1
4.5 0.7 0.1
5 0.7 0.1
0 0.75 0.1
0.5 0.75 0.1
1 0.75 0.1
1.5 0.75 0.1
2 0.75 0.1
2.5 0.75 0.1
3 0.75 0.1
3.5 0.75 0.1
4 0.75 0.1
4.5 0.75 0.1
5 0.75 0.1
0 0.8 0.1
0.5 0.8 0.1
1 0.8 0.1
1.5 0.8 0.1
2 0.8 0.1
2.5 0.8 0.1
3 0.8 0.1
3.5 0.8 0.1
4 0.8 0.1
4.5 0.8 0.1
5 0.8 0.1
0 0.85 0.1
0.5 0.85 0.1
1 0.85 0.1
1.5 0.85 0.1
2 0.85 0.1
2.5 0.85 0.1
3 0.85 0.1
3.5 0.85 0.1
4 0.85 0.1
4.5 0.85 0.1
5 0.85 0.1
0 0.9 0.1
0.5 0.9 0.1
1 0.9 0.1
1.5 0.9 0.1
2 0.9 0.1
2.5 0.9 0.1
3 0.9 0.1
3.5 0.9 0.1
4 0.9 0.1
4.5 0.9 0.1
5 0.9 0.1
0 0.95 0.1
0.5 0.95 0.1
1 0.95 0.1
1.5 0.95 0.1
2 0.95 0.1
2.5 0.95 0.1
3 0.95 0.1
3.5 0.95 0.1
4 0.95 0.1
4.5 0.95 0.1
5 0.95 0.1
0 1 0.1
0.5 1 0.1
1 1 0.1
1.5 1 0.1
2 1 0.1
2.5 1 0.1
3 1 0.1
3.5 1 0.1
4 1 0.1
4.5 1 0.1
5 1 0.1
0 0 0.2
0.5 0 0.2
1 0 0.2
1.5 0 0.2
2 0 0.2
2.5 0 0.2
3 0 0.2
3.5 0 0.2
4 0 0.2
4.5 0 0.2
5 0 0.2
0 0.05 0.2
0.5 0.05 0.2
1 0.05 0.2
1.5 0.05 0.2
2 0.05 0.2
2.5 0.05 0.2
3 0.05 0.2
3.5 0.05 0.2
4 0.05 0.2
4.5 0.05 0.2
5 0.05 0.2
0 0.1 0.2
0.5 0.1 0.2
1 0.1 0.2
1.5 0.1 0.2
2 0.1 0.2
2.5 0.1 0.2
3 0.1 0.2
3.5 0.1 0.2
4 0.1 0.2
4.5 0.1 0.2
5 0.1 0.2
0 0.15 0.2
0.5 0.15 0.2
1 0.15 0.2
1.5 0.15 0.2
2 0.15 0.2
2.5 0.15 0.2
3 0.15 0.2
3.5 0.15 0.2
4 0.15 0.2
4.5 0.15 0.2
5 0.15 0.2
0 0.2 0.2
0.5 0.2 0.2
1 0.2 0.2
1.5 0.2 0.2
2 0.2 0.2
2.5 0.2 0.2
3 0.2 0.2
3.5 0.2 0.2
4 0.2 0.2
4.5 0.2 0.2
5 0.2 0.2
0 0.25 0.2
0.5 0.25 0.2
1 0.25 0.2
1.5 0.25 0.2
2 0.25 0.2
2.5 0.25 0.2
3 0.25 0.2
3.5 0.25 0.2
4 0.25 0.2
4.5 0.25 0.2
5 0.25 0.2
0 0.3 0.2
0.5 0.3 0.2
1 0.3 0.2
1.5 0.3 0.2
2 0.3 0.2
2.5 0.3 0.2
3 0.3 0.2
3.5 0.3 0.2
4 0.3 0.2
4.5 0.3 0.2
5 0.3 0.2
0 0.35 0.2
0.5 0.35 0.2
1 0.35 0.2
1.5 0.35 0.2
2 0.35 0.2
2.5 0.35 0.2
3 0.35 0.2
3.5 0.35 0.2
4 0.35 0.2
4.5 0.35 0.2
5 0.35 0.2
0 0.4 0.2
0.5 0.4 0.2
1 0.4 0.2
1.5 0.4 0.2
2 0.4 0.2
2.5 0.4 0.2
3 0.4 0.2
3.5 0.4 0.2
4 0.4 0.2
4.5 0.4 0.2
5 0.4 0.2
0 0.45 0.2
0.5 0.45 0.2
1 0.45 0.2
1.5 0.45 0.2
2 0.45 0.2
2.5 0.45 0.2
3 0.45 0.2
3.5 0.45 0.2
4 0.45 0.2
4.5 0.45 0.2
5 0.45 0.2
0 0.5 0.2
0.5 0.5 0.2
1 0.5 0.2
1.5 0.5 0.2
2 0.5 0.2
2.5 0.5 0.2
3 0.5 0.2
3.5 0.5 0.2
4 0.5 0.2
4.5 0.5 0.2
5 0.5 0.2
0 0.55 0.2
0.5 0.55 0.2
1 0.55 0.2
1.5 0.55 0.2
2 0.55 0.2
2.5 0.55 0.2
3 0.55 0.2
3.5 0.55 0.2
4 0.55 0.2
4.5 0.55 0.2
5 0.55 0.2
0 0.6 0.2
0.5 0.6 0.2
1 0.6 0.2
1.5 0.6 0.2
2 0.6 0.2
2.5 0.6 0.2
3 0.6 0.2
3.5 0.6 0.2
4 0.6 0.2
4.5 0.6 0.2
5 0.6 0.2
0 0.65 0.2
0.5 0.65 0.2
1 0.65 0.2
1.5 0.65 0.2
2 0.65 0.2
2.5 0.65 0.2
3 0.65 0.2
3.5 0.65 0.2
4 0.65 0.2
4.5 0.65 0.2
5 0.65 0.2
0 0.7 0.2
0.5 0.7 0.2
1 0.7 0.2
1.5 0.7 0.2
2 0.7 0.2
2.5 0.7 0.2
3 0.7 0.2
3.5 0.7 0.2
4 0.7 0.2
4.5 0.7 0.2
5 0.7 0.2
0 0.75 0.2
0.5 0.75 0.2
1 0.75 0.2
1.5 0.75 0.2
2 0.75 0.2
2.5 0.75 0.2
3 0.75 0.2
3.5 0.75 0.2
4 0.75 0.2
4.5 0.75 0.2
5 0.75 0.2
0 0.8 0.2
0.5 0.8 0.2
1 0.8 0.2
1.5 0.8 0.2
2 0.8 0.2
2.5 0.8 0.2
3 0.8 0.2
3.5 0.8 0.2
4 0.8 0.2
4.5 0.8 0.2
5 0.8 0.2
0 0.85 0.2
0.5 0.85 0.2
1 0.85 0.2
1.5 0.85 0.2
2 0.85 0.2
2.5 0.85 0.2
3 0.85 0.2
3.5 0.85 0.2
4 0.85 0.2
4.5 0.85 0.2
5 0.85 0.2
0 0.9 0.2
0.5 0.9 0.2
1 0.9 0.2
1.5 0.9 0.2
2 0.9 0.2
2.5 0.9 0.2
3 0.9 0.2
3.5 0.9 0.2
4 0.9 0.2
4.5 0.9 0.2
5 0.9 0.2
0 0.95 0.2
0.5 0.95 0.2
1 0.95 0.2
1.5 0.95 0.2
2 0.95 0.2
2.5 0.95 0.2
3 0.95 0.2
3.5 0.95 0.2
4 0.95 0.2
4.5 0.95 0.2
5 0.95 0.2
0 1 0.2
0.5 1 0.2
1 1 0.2
1.5 1 0.2
2 1 0.2
2.5 1 0.2
3 1 0.2
3.5 1 0.2
4 1 0.2
4.5 1 0.2
5 1 0.2
0 0 0.3
0.5 0 0.3
1 0 0.3
1.5 0 0.3
2 0 0.3
2.5 0 0.3
3 0 0.3
3.5 0 0.3
4 0 0.3
4.5 0 0.3
5 0 0.3
0 0.05 0.3
0.5 0.05 0.3
1 0.05 0.3
1.5 0.05 0.3
2 0.05 0.3
2.5 0.05 0.3
3 0.05 0.3
3.5 0.05 0.3
4 0.05 0.3
4.5 0.05 0.3
5 0.05 0.3
0 0.1 0.3
0.5 0.1 0.3
1 0.1 0.3
1.5 0.1 0.3
2 0.1 0.3
2.5 0.1 0.3
3 0.1 0.3
3.5 0.1 0.3
4 0.1 0.3
4.5 0.1 0.3
5 0.1 0.3
0 0.15 0.3
0.5 0.15 0.3
1 0.15 0.3
1.5 0.15 0.3
2 0.15 0.3
2.5 0.15 0.3
3 0.15 0.3
3.5 0.15 0.3
4 0.15 0.3
4.5 0.15 0.3
5 0.15 0.3
0 0.2 0.3
0.5 0.2 0.3
1 0.2 0.3
1.5 0.2 0.3
2 0.2 0.3
2.5 0.2 0.3
3 0.2 0.3
3.5 0.2 0.3
4 0.2 0.3
4.5 0.2 0.3
5 0.2 0.3
0 0.25 0.3
0.5 0.25 0.3
1 0.25 0.3
1.5 0.25 0.3
2 0.25 0.3
2.5 0.25 0.3
3 0.25 0.3
3.5 0.25 0.3
4 0.25 0.3
4.5 0.25 0.3
5 0.25 0.3
0 0.3 0.3
0.5 0.3 0.3
1 0.3 0.3
1.5 0.3 0.3
2 0.3 0.3
2.5 0.3 0.3
3 0.3 0.3
3.5 0.3 0.3
4 0.3 0.3
4.5 0.3 0.3
5 0.3 0.3
0 0.35 0.3
0.5 0.35 0.3
1 0.35 0.3
1.5 0.35 0.3
2 0.35 0.3
2.5 0.35 0.3
3 0.35 0.3
3.5 0.35 0.3
4 0.35 0.3
4.5 0.35 0.3
5 0.35 0.3
0 0.4 0.3
0.5 0.4 0.3
1 0.4 0.3
1.5 0.4 0.3
2 0.4 0.3
2.5 0.4 0.3
3 0.4 0.3
3.5 0.4 0.3
4 0.4 0.3
4.5 0.4 0.3
5 0.4 0.3
0 0.45 0.3
0.5 0.45 0.3
1 0.45 0.3
1.5 0.45 0.3
2 0.45 0.3
2.5 0.45 0.3
3 0.45 0.3
3.5 0.45 0.3
4 0.45 0.3
4.5 0.45 0.3
5 0.45 0.3
0 0.5 0.3
0.5 0.5 0.3
1 0.5 0.3
1.5 0.5 0.3
2 0.5 0.3
2.5 0.5 0.3
3 0.5 0.3
3.5 0.5 0.3
4 0.5 0.3
4.5 0.5 0.3
5 0.5 0.3
0 0.55 0.3
0.5 0.55 0.3
1 0.55 0.3
1.5 0.55 0.3
2 0.55 0.3
2.5 0.55 0.3
3 0.55 0.3
3.5 0.55 0.3
4 0.55 0.3
4.5 0.55 0.3
5 0.55 0.3
0 0.6 0.3
0.5 0.6 0.3
1 0.6 0.3
1.5 0.6 0.3
2 0.6 0.3
2.5 0.6 0.3
3 0.6 0.3
3.5 0.6 0.3
4 0.6 0.3
4.5 0.6 0.3
5 0.6 0.3
0 0.65 0.3
0.5 0.65 0.3
1 0.65 0.3
1.5 0.65 0.3
2 0.65 0.3
2.5 0.65 0.3
3 0.65 0.3
3.5 0.65 0.3
4 0.65 0.3
4.5 0.65 0.3
5 0.65 0.3
0 0.7 0.3
0.5 0.7 0.3
1 0.7 0.3
1.5 0.7 0.3
2 0.7 0.3
2.5 0.7 0.3
3 0.7 0.3
3.5 0.7 0.3
4 0.7 0.3
4.5 0.7 0.3
5 0.7 0.3
0 0.75 0.3
0.5 0.75 0.3
1 0.75 0.3
1.5 0.75 0.3
2 0.75 0.3
2.5 0.75 0.3
3 0.75 0.3
3.5 0.75 0.3
4 0.75 0.3
4.5 0.75 0.3
5 0.75 0.3
0 0.8 0.3
0.5 0.8 0.3
1 0.8 0.3
1.5 0.8 0.3
2 0.8 0.3
2.5 0.8 0.3
3 0.8 0.3
3.5 0.8 0.3
4 0.8 0.3
4.5 0.8 0.3
5 0.8 0.3
0 0.85 0.3
0.5 0.85 0.3
1 0.85 0.3
1.5 0.85 0.3
2 0.85 0.3
2.5 0.85 0.3
3 0.85 0.3
3.5 0.85 0.3
4 0.85 0.3
4.5 0.85 0.3
5 0.85 0.3
0 0.9 0.3
0.5 0.9 0.3
1 0.9 0.3
1.5 0.9 0.3
2 0.9 0.3
2.5 0.9 0.3
3 0.9 0.3
3.5 0.9 0.3
4 0.9 0.3
4.5 0.9 0.3
5 0.9 0.3
0 0.95 0.3
0.5 0.95 0.3
1 0.95 0.3
1.5 0.95 0.3
2 0.95 0.3
2.5 0.95 0.3
3 0.95 0.3
3.5 0.95 0.3
4 0.95 0.3
4.5 0.95 0.3
5 0.95 0.3
0 1 0.3
0.5 1 0.3
1 1 0.3
1.5 1 0.3
2 1 0.3
2.5 1 0.3
3 1 0.3
3.5 1 0.3
4 1 0.3
4.5 1 0.3
5 1 0.3
0 0 0.4
[...]
CELL_DATA 2000
SCALARS pressure float 1
LOOKUP_TABLE default
0
0
0.90625
1.00306
0.822883
0.662032
0.505462
0.349997
0.194031
0.0242423
0
0
0.904565
0.995358
0.822229
0.6619
0.505431
0.349992
0.194057
0.0268006
0
0
0.867116
0.990809
0.821296
0.661715
0.505388
0.349987
0.194144
0.0291617
0
0
0.855676
0.98058
0.820186
0.66149
0.505333
0.349981
0.194264
0.0311313
1.58337
1.71876
0.864574
0.971314
0.818936
0.661232
0.50527
0.349975
0.194396
0.0327312
1.57947
1.70976
0.893137
0.964187
0.817657
0.660953
0.5052
0.349968
0.194524
0.0340031
1.57129
1.6959
0.927689
0.959406
0.816434
0.660659
0.505123
0.349958
0.194637
0.0349811
1.55963
1.67991
0.965204
0.956604
0.81532
0.660361
0.505042
0.349944
0.194727
0.0356917
1.54732
1.66371
1.00053
0.955332
0.814342
0.660065
0.504959
0.349927
0.194787
0.0361544
1.53638
1.6484
1.0324
0.95516
0.813502
0.659776
0.504874
0.349907
0.194815
0.036382
1.52756
1.63452
1.06044
0.95574
0.81279
0.659498
0.50479
0.349883
0.194808
0.0363808
1.52133
1.62227
1.08464
0.956785
0.812188
0.659234
0.504707
0.349856
0.194768
0.0361509
1.51819
1.61171
1.10515
0.958062
0.811679
0.658987
0.504627
0.349827
0.194695
0.0356858
1.51823
1.6028
1.12219
0.959383
0.81124
0.658758
0.504551
0.349796
0.194594
0.034973
1.52126
1.59552
1.13599
0.960596
0.810853
0.658546
0.50448
0.349765
0.19447
0.033993
1.52705
1.58981
1.14678
0.961584
0.810499
0.658354
0.504416
0.349736
0.194332
0.0327192
1.53507
1.58566
1.1548
0.962256
0.810164
0.658181
0.504358
0.349709
0.194191
0.0311176
1.54349
1.58299
1.16024
0.962548
0.809836
0.658029
0.504309
0.349686
0.194064
0.0291466
1.54957
1.58189
1.1633
0.962443
0.809516
0.6579
0.50427
0.349669
0.193972
0.0267843
1.55249
1.58208
1.16395
0.961975
0.80923
0.657803
0.504242
0.34966
0.193942
0.0242253
0
0
0.915371
0.999322
0.822669
0.66197
0.505448
0.350008
0.194229
0.0287343
0
0
0.912019
0.992646
0.821806
0.661807
0.505411
0.350001
0.19426
0.0322538
0
0
0.875999
0.988405
0.8209
0.66162
0.505367
0.349997
0.194376
0.0347562
0
0
0.887366
0.980882
0.819783
0.661398
0.505314
0.349993
0.194512
0.0367677
1.56708
1.73115
0.826566
0.970375
0.818558
0.66115
0.505253
0.349988
0.194653
0.0383958
1.56246
1.74114
0.850304
0.961057
0.817309
0.660882
0.505185
0.349981
0.194787
0.0396864
1.55484
1.71853
0.899508
0.956536
0.816147
0.660603
0.505112
0.349972
0.194903
0.0406767
1.54504
1.69487
0.945964
0.954655
0.815111
0.660321
0.505035
0.34996
0.194995
0.0413953
1.53386
1.67387
0.988188
0.954101
0.814214
0.660041
0.504955
0.349945
0.195056
0.0418628
1.52277
1.65551
1.02474
0.954455
0.813447
0.659768
0.504874
0.349925
0.195085
0.0420926
1.51385
1.63949
1.05587
0.955419
0.8128
0.659505
0.504793
0.349902
0.195079
0.0420915
1.50766
1.62572
1.08213
0.956744
0.812254
0.659257
0.504714
0.349876
0.195038
0.0418594
1.50437
1.61405
1.10401
0.958223
0.811792
0.659023
0.504638
0.349847
0.194964
0.0413897
1.50409
1.60432
1.12194
0.959691
0.811394
0.658806
0.504565
0.349817
0.194861
0.040669
1.50698
1.59635
1.13629
0.96101
0.81104
0.658605
0.504497
0.349786
0.194734
0.0396767
1.51272
1.58987
1.14738
0.962073
0.810713
0.658422
0.504435
0.349757
0.194591
0.0383843
1.51951
1.58475
1.15549
0.962799
0.810399
0.658256
0.504379
0.34973
0.194442
0.0367546
1.52611
1.58113
1.16087
0.963129
0.810088
0.658108
0.504331
0.349706
0.194298
0.0347417
1.53183
1.57937
1.16374
0.963005
0.809766
0.657978
0.504291
0.349689
0.194177
0.0322382
1.53611
1.58026
1.16414
0.962356
0.809409
0.65786
0.504258
0.349678
0.194142
0.0287178
0
0
0.925653
0.998494
0.822599
0.661922
0.505436
0.35003
0.194533
0.0320668
0
0
0.921291
0.992773
0.821729
0.661755
0.505398
0.350024
0.194572
0.0357385
0
0
0.891854
0.989652
0.820864
0.661568
0.505354
0.35002
0.1947
0.0383302
0
0
0.904805
0.983754
0.819817
0.661353
0.505302
0.350017
0.194846
0.0404002
1.55084
1.7292
0.814387
0.973563
0.818634
0.661111
0.505242
0.350013
0.194995
0.0420666
1.54563
1.76521
0.802938
0.961988
0.817363
0.660849
0.505176
0.350008
0.195134
0.0433829
1.54043
1.75476
0.856466
0.954488
0.816121
0.660577
0.505105
0.35
0.195255
0.0443904
1.5383
1.72424
0.919298
0.951884
0.815027
0.660301
0.505031
0.349989
0.195349
0.04512
1.5377
1.69476
0.970863
0.951813
0.814117
0.660029
0.504954
0.349974
0.195413
0.0455942
1.53683
1.66954
1.0135
0.952742
0.813368
0.659764
0.504876
0.349956
0.195442
0.0458272
1.53483
1.64862
1.04892
0.954191
0.812751
0.659511
0.504798
0.349934
0.195436
0.0458261
1.53167
1.63157
1.07819
0.955908
0.81224
0.659271
0.504721
0.349908
0.195395
0.0455909
1.52823
1.61791
1.10219
0.9577
0.811812
0.659047
0.504647
0.34988
0.19532
0.0451147
1.52454
1.60722
1.1216
0.959415
0.811446
0.658838
0.504577
0.34985
0.195214
0.044383
1.52001
1.59899
1.13693
0.960928
0.811121
0.658645
0.504511
0.349819
0.195083
0.0433736
1.51504
1.59262
1.14852
0.962146
0.810821
0.658468
0.50445
0.349789
0.194935
0.0420555
1.51098
1.58729
1.15668
0.962998
0.810532
0.658307
0.504396
0.349761
0.194777
0.0403876
1.51016
1.58289
1.16185
0.963408
0.810238
0.658163
0.504349
0.349737
0.194624
0.0383162
1.51401
1.58033
1.16451
0.963307
0.809919
0.658032
0.504309
0.349719
0.194491
0.0357234
1.51943
1.58097
1.16478
0.962636
0.809552
0.657911
0.504275
0.349707
0.194447
0.0320507
0
0
0.930041
0.999009
0.822625
0.661897
0.505428
0.350052
0.194795
0.0341582
0
0
0.925526
0.993599
0.821767
0.66173
0.505391
0.350046
0.194837
0.0378618
0
0
0.895634
0.991051
0.820934
0.661545
0.505347
0.350044
0.194969
0.0404867
0
0
0.903973
0.985885
0.819937
0.661333
0.505295
0.350041
0.19512
0.042585
1.54272
1.74248
0.809471
0.976053
0.818806
0.661097
0.505237
0.350039
0.195274
0.0442736
1.5379
1.78395
0.783766
0.964063
0.817564
0.660842
0.505172
0.350034
0.195417
0.0456067
1.5356
1.7798
0.822189
0.955069
0.816281
0.660574
0.505103
0.350027
0.195541
0.0466264
1.54081
1.74873
0.890422
0.950932
0.815092
0.660299
0.50503
0.350016
0.195637
0.0473645
1.55276
1.71338
0.952912
0.9503
0.814098
0.660027
0.504954
0.350002
0.195702
0.0478439
1.56669
1.68141
1.00253
0.951215
0.813302
0.659763
0.504878
0.349984
0.195732
0.0480794
1.57683
1.65373
1.04228
0.952803
0.812663
0.659512
0.504801
0.349962
0.195727
0.0480783
1.5801
1.63136
1.07467
0.954712
0.812148
0.659275
0.504726
0.349937
0.195685
0.0478407
1.57661
1.61521
1.10102
0.956721
0.811728
0.659054
0.504654
0.349909
0.195608
0.0473592
1.56625
1.60484
1.12196
0.958678
0.811381
0.658849
0.504585
0.349879
0.195501
0.0466191
1.54911
1.59837
1.13794
0.960458
0.811091
0.658662
0.50452
0.349848
0.195367
0.0455976
1.52874
1.59352
1.14959
0.961924
0.810832
0.658491
0.504461
0.349818
0.195215
0.0442628
1.51184
1.5891
1.15763
0.962951
0.810576
0.658335
0.504407
0.34979
0.195053
0.0425726
1.50387
1.58497
1.16267
0.963462
0.810303
0.658194
0.504361
0.349766
0.194895
0.040473
1.50522
1.58216
1.1652
0.96341
0.809994
0.658065
0.50432
0.349747
0.194757
0.037847
1.51054
1.58266
1.1654
0.962754
0.80963
0.657943
0.504287
0.349735
0.19471
0.0341424
0
0
0.930684
0.99946
0.822663
0.661886
0.505425
0.350066
0.194942
0.0351582
0
0
0.925639
0.994151
0.821812
0.66172
0.505388
0.35006
0.194985
0.0388696
0
0
0.894388
0.991813
0.820995
0.661536
0.505344
0.350058
0.195119
0.0415055
0
0
0.900872
0.986907
0.820022
0.661327
0.505293
0.350056
0.195272
0.0436146
1.53989
1.75199
0.804804
0.977255
0.818915
0.661094
0.505235
0.350054
0.195428
0.0453127
1.53548
1.79492
0.777199
0.965251
0.817695
0.660842
0.505171
0.350049
0.195573
0.0466535
1.53554
1.79212
0.810996
0.95606
0.816424
0.660577
0.505103
0.350043
0.195697
0.0476791
1.54602
1.76095
0.874808
0.95148
0.81522
0.660305
0.50503
0.350033
0.195795
0.0484214
1.56548
1.72332
0.939146
0.950188
0.814169
0.660032
0.504955
0.350019
0.195861
0.0489035
1.58822
1.68752
0.99407
0.950559
0.813294
0.659765
0.504879
0.350001
0.195891
0.0491404
1.60692
1.65571
1.03846
0.951856
0.812591
0.65951
0.504803
0.349979
0.195885
0.0491394
1.61509
1.62971
1.07365
0.953719
0.81204
0.659271
0.504729
0.349954
0.195843
0.0489004
1.6115
1.61194
1.10122
0.955887
0.811623
0.659052
0.504657
0.349926
0.195766
0.0484162
1.59605
1.60214
1.12246
0.958099
0.811308
0.658851
0.504589
0.349896
0.195658
0.0476719
1.57009
1.59699
1.13846
0.960108
0.811052
0.658668
0.504525
0.349865
0.195523
0.0466445
1.54066
1.59355
1.15012
0.961735
0.81082
0.658501
0.504466
0.349835
0.195369
0.045302
1.51615
1.59006
1.15815
0.962868
0.810583
0.658348
0.504413
0.349807
0.195205
0.0436024
1.50299
1.58631
1.16314
0.963445
0.810323
0.658208
0.504367
0.349782
0.195045
0.041492
1.50215
1.58347
1.16561
0.963428
0.810021
0.65808
0.504327
0.349763
0.194905
0.038855
1.50723
1.58392
1.16577
0.962784
0.80966
0.657959
0.504293
0.349751
0.194858
0.0351425
0
0
0.930684
0.99946
0.822663
0.661886
0.505425
0.350066
0.194942
0.0351582
0
0
0.925639
0.994151
0.821812
0.66172
0.505388
0.35006
0.194985
0.0388696
0
0
0.894388
0.991813
0.820995
0.661536
0.505344
0.350058
0.195119
0.0415055
0
0
0.900872
0.986907
0.820022
0.661327
0.505293
0.350056
0.195272
0.0436146
1.53989
1.75199
0.804804
0.977255
0.818915
0.661094
0.505235
0.350054
0.195428
0.0453127
1.53548
1.79492
0.777199
0.965251
0.817695
0.660842
0.505171
0.350049
0.195573
0.0466535
1.53554
1.79212
0.810996
0.95606
0.816424
0.660577
0.505103
0.350043
0.195697
0.0476791
1.54602
1.76095
0.874808
0.95148
0.81522
0.660305
0.50503
0.350033
0.195795
0.0484214
1.56548
1.72332
0.939146
0.950188
0.814169
0.660032
0.504955
0.350019
0.195861
0.0489035
1.58822
1.68752
0.99407
0.950559
0.813294
0.659765
0.504879
0.350001
0.195891
0.0491404
1.60692
1.65571
1.03846
0.951856
0.812591
0.65951
0.504803
0.349979
0.195885
0.0491394
1.61509
1.62971
1.07365
0.953719
0.81204
0.659271
0.504729
0.349954
0.195843
0.0489004
1.6115
1.61194
1.10122
0.955887
0.811623
0.659052
0.504657
0.349926
0.195766
0.0484162
1.59605
1.60214
1.12246
0.958099
0.811308
0.658851
0.504589
0.349896
0.195658
0.0476719
1.57009
1.59699
1.13846
0.960108
0.811052
0.658668
0.504525
0.349865
0.195523
0.0466445
1.54066
1.59355
1.15012
0.961735
0.81082
0.658501
0.504466
0.349835
0.195369
0.045302
1.51615
1.59006
1.15815
0.962868
0.810583
0.658348
0.504413
0.349807
0.195205
0.0436024
1.50299
1.58631
1.16314
0.963445
0.810323
0.658208
0.504367
0.349782
0.195045
0.041492
1.50215
1.58347
1.16561
0.963428
0.810021
0.65808
0.504327
0.349763
0.194905
0.038855
1.50723
1.58392
1.16577
0.962784
0.80966
0.657959
0.504293
0.349751
0.194858
0.0351425
0
0
0.930041
0.999009
0.822625
0.661897
0.505428
0.350052
0.194795
0.0341582
0
0
0.925526
0.993599
0.821767
0.66173
0.505391
0.350046
0.194837
0.0378618
0
0
0.895634
0.991051
0.820934
0.661545
0.505347
0.350044
0.194969
0.0404867
0
0
0.903973
0.985885
0.819937
0.661333
0.505295
0.350041
0.19512
0.042585
1.54272
1.74248
0.809471
0.976053
0.818806
0.661097
0.505237
0.350039
0.195274
0.0442736
1.5379
1.78395
0.783766
0.964063
0.817564
0.660842
0.505172
0.350034
0.195417
0.0456067
1.5356
1.7798
0.822189
0.955069
0.816281
0.660574
0.505103
0.350027
0.195541
0.0466264
1.54081
1.74873
0.890422
0.950932
0.815092
0.660299
0.50503
0.350016
0.195637
0.0473645
1.55276
1.71338
0.952912
0.9503
0.814098
0.660027
0.504954
0.350002
0.195702
0.0478439
1.56669
1.68141
1.00253
0.951215
0.813302
0.659763
0.504878
0.349984
0.195732
0.0480794
1.57683
1.65373
1.04228
0.952803
0.812663
0.659512
0.504801
0.349962
0.195727
0.0480783
1.5801
1.63136
1.07467
0.954712
0.812148
0.659275
0.504726
0.349937
0.195685
0.0478407
1.57661
1.61521
1.10102
0.956721
0.811728
0.659054
0.504654
0.349909
0.195608
0.0473592
1.56625
1.60484
1.12196
0.958678
0.811381
0.658849
0.504585
0.349879
0.195501
0.0466191
1.54911
1.59837
1.13794
0.960458
0.811091
0.658662
0.50452
0.349848
0.195367
0.0455976
1.52874
1.59352
1.14959
0.961924
0.810832
0.658491
0.504461
0.349818
0.195215
0.0442628
1.51184
1.5891
1.15763
0.962951
0.810576
0.658335
0.504407
0.34979
0.195053
0.0425726
1.50387
1.58497
1.16267
0.963462
0.810303
0.658194
0.504361
0.349766
0.194895
0.040473
1.50522
1.58216
1.1652
0.96341
0.809994
0.658065
0.50432
0.349747
0.194757
0.037847
1.51054
1.58266
1.1654
0.962754
0.80963
0.657943
0.504287
0.349735
0.19471
0.0341424
0
0
0.925653
0.998494
0.822599
0.661922
0.505436
0.35003
0.194533
0.0320668
0
0
0.921291
0.992773
0.821729
0.661755
0.505398
0.350024
0.194572
0.0357385
0
0
0.891854
0.989652
0.820864
0.661568
0.505354
0.35002
0.1947
0.0383302
0
0
0.904805
0.983754
0.819817
0.661353
0.505302
0.350017
0.194846
0.0404002
1.55084
1.7292
0.814387
0.973563
0.818634
0.661111
0.505242
0.350013
0.194995
0.0420666
1.54563
1.76521
0.802938
0.961988
0.817363
0.660849
0.505176
0.350008
0.195134
0.0433829
1.54043
1.75476
0.856466
0.954488
0.816121
0.660577
0.505105
0.35
0.195255
0.0443904
1.5383
1.72424
0.919298
0.951884
0.815027
0.660301
0.505031
0.349989
0.195349
0.04512
1.5377
1.69476
0.970863
0.951813
0.814117
0.660029
0.504954
0.349974
0.195413
0.0455942
1.53683
1.66954
1.0135
0.952742
0.813368
0.659764
0.504876
0.349956
0.195442
0.0458272
1.53483
1.64862
1.04892
0.954191
0.812751
0.659511
0.504798
0.349934
0.195436
0.0458261
1.53167
1.63157
1.07819
0.955908
0.81224
0.659271
0.504721
0.349908
0.195395
0.0455909
1.52823
1.61791
1.10219
0.9577
0.811812
0.659047
0.504647
0.34988
0.19532
0.0451147
1.52454
1.60722
1.1216
0.959415
0.811446
0.658838
0.504577
0.34985
0.195214
0.044383
1.52001
1.59899
1.13693
0.960928
0.811121
0.658645
0.504511
0.349819
0.195083
0.0433736
1.51504
1.59262
1.14852
0.962146
0.810821
0.658468
0.50445
0.349789
0.194935
0.0420555
1.51098
1.58729
1.15668
0.962998
0.810532
0.658307
0.504396
0.349761
0.194777
0.0403876
1.51016
1.58289
1.16185
0.963408
0.810238
0.658163
0.504349
0.349737
0.194624
0.0383162
1.51401
1.58033
1.16451
0.963307
0.809919
0.658032
0.504309
0.349719
0.194491
0.0357234
1.51943
1.58097
1.16478
0.962636
0.809552
0.657911
0.504275
0.349707
0.194447
0.0320507
0
0
0.915371
0.999322
0.822669
0.66197
0.505448
0.350008
0.194229
0.0287343
0
0
0.912019
0.992646
0.821806
0.661807
0.505411
0.350001
0.19426
0.0322538
0
0
0.875999
0.988405
0.8209
0.66162
0.505367
0.349997
0.194376
0.0347562
0
0
0.887366
0.980882
0.819783
0.661398
0.505314
0.349993
0.194512
0.0367677
1.56708
1.73115
0.826566
0.970375
0.818558
0.66115
0.505253
0.349988
0.194653
0.0383958
1.56246
1.74114
0.850304
0.961057
0.817309
0.660882
0.505185
0.349981
0.194787
0.0396864
1.55484
1.71853
0.899508
0.956536
0.816147
0.660603
0.505112
0.349972
0.194903
0.0406767
1.54504
1.69487
0.945964
0.954655
0.815111
0.660321
0.505035
0.34996
0.194995
0.0413953
1.53386
1.67387
0.988188
0.954101
0.814214
0.660041
0.504955
0.349945
0.195056
0.0418628
1.52277
1.65551
1.02474
0.954455
0.813447
0.659768
0.504874
0.349925
0.195085
0.0420926
1.51385
1.63949
1.05587
0.955419
0.8128
0.659505
0.504793
0.349902
0.195079
0.0420915
1.50766
1.62572
1.08213
0.956744
0.812254
0.659257
0.504714
0.349876
0.195038
0.0418594
1.50437
1.61405
1.10401
0.958223
0.811792
0.659023
0.504638
0.349847
0.194964
0.0413897
1.50409
1.60432
1.12194
0.959691
0.811394
0.658806
0.504565
0.349817
0.194861
0.040669
1.50698
1.59635
1.13629
0.96101
0.81104
0.658605
0.504497
0.349786
0.194734
0.0396767
1.51272
1.58987
1.14738
0.962073
0.810713
0.658422
0.504435
0.349757
0.194591
0.0383843
1.51951
1.58475
1.15549
0.962799
0.810399
0.658256
0.504379
0.34973
0.194442
0.0367546
1.52611
1.58113
1.16087
0.963129
0.810088
0.658108
0.504331
0.349706
0.194298
0.0347417
1.53183
1.57937
1.16374
0.963005
0.809766
0.657978
0.504291
0.349689
0.194177
0.0322382
1.53611
1.58026
1.16414
0.962356
0.809409
0.65786
0.504258
0.349678
0.194142
0.0287178
0
0
0.90625
1.00306
0.822883
0.662032
0.505462
0.349997
0.194031
0.0242423
0
0
0.904565
0.995358
0.822229
0.6619
0.505431
0.349992
0.194057
0.0268006
0
0
0.867116
0.990809
0.821296
0.661715
0.505388
0.349987
0.194144
0.0291617
0
0
0.855676
0.98058
0.820186
0.66149
0.505333
0.349981
0.194264
0.0311313
1.58337
1.71876
0.864574
0.971314
0.818936
0.661232
0.50527
0.349975
0.194396
0.0327312
1.57947
1.70976
0.893137
0.964187
0.817657
0.660953
0.5052
0.349968
0.194524
0.0340031
1.57129
1.6959
0.927689
0.959406
0.816434
0.660659
0.505123
0.349958
0.194637
0.0349811
1.55963
1.67991
0.965204
0.956604
0.81532
0.660361
0.505042
0.349944
0.194727
0.0356917
1.54732
1.66371
1.00053
0.955332
0.814342
0.660065
0.504959
0.349927
0.194787
0.0361544
1.53638
1.6484
1.0324
0.95516
0.813502
0.659776
0.504874
0.349907
0.194815
0.036382
1.52756
1.63452
1.06044
0.95574
0.81279
0.659498
0.50479
0.349883
0.194808
0.0363808
1.52133
1.62227
1.08464
0.956785
0.812188
0.659234
0.504707
0.349856
0.194768
0.0361509
1.51819
1.61171
1.10515
0.958062
0.811679
0.658987
0.504627
0.349827
0.194695
0.0356858
1.51823
1.6028
1.12219
0.959383
0.81124
0.658758
0.504551
0.349796
0.194594
0.034973
1.52126
1.59552
1.13599
0.960596
0.810853
0.658546
0.50448
0.349765
0.19447
0.033993
1.52705
1.58981
1.14678
0.961584
0.810499
0.658354
0.504416
0.349736
0.194332
0.0327192
1.53507
1.58566
1.1548
0.962256
0.810164
0.658181
0.504358
0.349709
0.194191
0.0311176
1.54349
1.58299
1.16024
0.962548
0.809836
0.658029
0.504309
0.349686
0.194064
0.0291466
1.54957
1.58189
1.1633
0.962443
0.809516
0.6579
0.50427
0.349669
0.193972
0.0267843
1.55249
1.58208
1.16395
0.961975
0.80923
0.657803
0.504242
0.34966
0.193942
0.0242253

VECTORS velocity float
0 0 0
0 0 0
0.787396 -0.0325409 -0.000692632
0.685048 -0.0031045 0.00077778
0.719248 -0.000750901 9.3017e-05
0.727862 -0.000166524 1.90973e-05
0.729787 -3.75857e-05 4.10619e-06
0.730251 -9.81817e-06 -1.99605e-06
0.730696 -1.49476e-05 -3.76196e-05
0.74681 -0.00110348 -0.000948225
0 0 0
0 0 0
-0.140824 -0.0966024 -0.000430575
0.696412 -0.0126673 0.00060713
0.766947 -0.00245731 0.000113666
0.777785 -0.000530103 2.38025e-05
0.780053 -0.000119338 5.09829e-06
0.780593 -3.11223e-05 -1.88452e-06
0.781177 -5.5541e-05 -4.05629e-05
0.786505 -0.00213619 -0.00111537
0 0 0
0 0 0
0.807386 -0.163477 0.000859475
0.73089 -0.0226107 0.000521622
0.771242 -0.00427356 9.96062e-05
0.781138 -0.000917262 2.29075e-05
0.783329 -0.000206441 5.01313e-06
0.783853 -5.35293e-05 -2.00785e-06
0.784355 -9.77452e-05 -4.34333e-05
0.788744 -0.00189511 -0.00114204
0 0 0
0 0 0
-0.126202 -0.232295 0.000612049
0.713782 -0.0312077 0.000134178
0.772067 -0.00596055 8.4975e-05
0.781554 -0.00128291 2.10708e-05
0.783578 -0.000289088 4.65169e-06
0.784061 -7.42062e-05 -2.19421e-06
0.784474 -0.00012201 -4.54109e-05
0.788955 -0.00156549 -0.00115412
0.428933 -0.0181064 -0.0392274
0.860725 0.00628962 -0.0235651
0.813616 -0.261228 0.0112833
0.739674 -0.0395497 0.000901799
0.77394 -0.00748142 9.44713e-05
0.781866 -0.0016132 1.90056e-05
0.783651 -0.000364131 4.12573e-06
0.784079 -9.22579e-05 -2.40222e-06
0.784416 -0.000130642 -4.65061e-05
0.789038 -0.00126381 -0.00116084
0.501835 -0.0486404 -0.0464553
0.974461 0.0116599 -0.021376
0.918313 -0.24626 0.013573
0.758499 -0.044657 0.00127261
0.775959 -0.00872846 9.43343e-05
0.782229 -0.0018978 1.62272e-05
0.783729 -0.000429475 3.45777e-06
0.784092 -0.00010719 -2.63013e-06
0.784364 -0.000127294 -4.72006e-05
0.789102 -0.000993295 -0.00116503
0.54697 -0.0667948 -0.0528525
0.977835 0.00843149 -0.0172486
0.927014 -0.224038 0.00845758
0.770616 -0.0473799 0.000940352
0.778028 -0.00968328 7.35581e-05
0.782639 -0.00212939 1.26551e-05
0.783819 -0.000483412 2.68099e-06
0.784107 -0.000118678 -2.86765e-06
0.784326 -0.000114811 -4.76534e-05
0.789151 -0.000748217 -0.00116766
0.58489 -0.0724343 -0.0587054
0.972468 0.00399584 -0.0147316
0.925335 -0.200419 0.0047458
0.780604 -0.0482561 0.000595871
0.780173 -0.0103355 5.09666e-05
0.783085 -0.00230245 8.85326e-06
0.783917 -0.000524583 1.83417e-06
0.784126 -0.000126541 -3.10776e-06
0.7843 -9.55139e-05 -4.79529e-05
0.789189 -0.000522552 -0.00116929
0.615712 -0.0674636 -0.0637744
0.967301 0.000439605 -0.0134509
0.923042 -0.177299 0.00258891
0.789357 -0.0476742 0.000350525
0.782332 -0.0106852 2.93861e-05
0.783554 -0.00241334 4.98737e-06
0.784022 -0.000551993 9.47148e-07
0.784147 -0.000130722 -3.34459e-06
0.784286 -7.13581e-05 -4.81483e-05
0.789214 -0.000310482 -0.00117024
0.639279 -0.0539895 -0.0678866
0.96276 -0.00156289 -0.0128452
0.920884 -0.155442 0.0012244
0.796985 -0.0459445 0.00017893
0.784441 -0.0107425 1.0306e-05