# vtk DataFile Version 2.0
TestTestTest
ASCII

DATASET STRUCTURED_GRID
DIMENSIONS 11 21 11
POINTS 2541 float
0 0 0
0.5 0 0
1 0 0
1.5 0 0
2 0 0
2.5 0 0
3 0 0
3.5 0 0
4 0 0
4.5 0 0
5 0 0
0 0.05 0
0.5 0.05 0
1 0.05 0
1.5 0.05 0
2 0.05 0
2.5 0.05 0
3 0.05 0
3.5 0.05 0
4 0.05 0
4.5 0.05 0
5 0.05 0
0 0.1 0
0.5 0.1 0
1 0.1 0
1.5 0.1 0
2 0.1 0
2.5 0.1 0
3 0.1 0
3.5 0.1 0
4 0.1 0
4.5 0.1 0
5 0.1 0
0 0.15 0
0.5 0.15 0
1 0.15 0
1.5 0.15 0
2 0.15 0
2.5 0.15 0
3 0.15 0
3.5 0.15 0
4 0.15 0
4.5 0.15 0
5 0.15 0
0 0.2 0
0.5 0.2 0
1 0.2 0
1.5 0.2 0
2 0.2 0
2.5 0.2 0
3 0.2 0
3.5 0.2 0
4 0.2 0
4.5 0.2 0
5 0.2 0
0 0.25 0
0.5 0.25 0
1 0.25 0
1.5 0.25 0
2 0.25 0
2.5 0.25 0
3 0.25 0
3.5 0.25 0
4 0.25 0
4.5 0.25 0
5 0.25 0
0 0.3 0
0.5 0.3 0
1 0.3 0
1.5 0.3 0
2 0.3 0
2.5 0.3 0
3 0.3 0
3.5 0.3 0
4 0.3 0
4.5 0.3 0
5 0.3 0
0 0.35 0
0.5 0.35 0
1 0.35 0
1.5 0.35 0
2 0.35 0
2.5 0.35 0
3 0.35 0
3.5 0.35 0
4 0.35 0
4.5 0.35 0
5 0.35 0
0 0.4 0
0.5 0.4 0
1 0.4 0
1.5 0.4 0
2 0.4 0
2.5 0.4 0
3 0.4 0
3.5 0.4 0
4 0.4 0
4.5 0.4 0
5 0.4 0
0 0.45 0
0.5 0.45 0
1 0.45 0
1.5 0.45 0
2 0.45 0
2.5 0.45 0
3 0.45 0
3.5 0.45 0
4 0.45 0
4.5 0.45 0
5 0.45 0
0 0.5 0
0.5 0.5 0
1 0.5 0
1.5 0.5 0
2 0.5 0
2.5 0.5 0
3 0.5 0
3.5 0.5 0
4 0.5 0
4.5 0.5 0
5 0.5 0
0 0.55 0
0.5 0.55 0
1 0.55 0
1.5 0.55 0
2 0.55 0
2.5 0.55 0
3 0.55 0
3.5 0.55 0
4 0.55 0
4.5 0.55 0
5 0.55 0
0 0.6 0
0.5 0.6 0
1 0.6 0
1.5 0.6 0
2 0.6 0
2.5 0.6 0
3 0.6 0
3.5 0.6 0
4 0.6 0
4.5 0.6 0
5 0.6 0
0 0.65 0
0.5 0.65 0
1 0.65 0
1.5 0.65 0
2 0.65 0
2.5 0.65 0
3 0.65 0
3.5 0.65 0
4 0.65 0
4.5 0.65 0
5 0.65 0
0 0.7 0
0.5 0.7 0
1 0.7 0
1.5 0.7 0
2 0.7 0
2.5 0.7 0
3 0.7 0
3.5 0.7 0
4 0.7 0
4.5 0.7 0
5 0.7 0
0 0.75 0
0.5 0.75 0
1 0.75 0
1.5 0.75 0
2 0.75 0
2.5 0.75 0
3 0.75 0
3.5 0.75 0
4 0.75 0
4.5 0.75 0
5 0.75 0
0 0.8 0
0.5 0.8 0
1 0.8 0
1.5 0.8 0
2 0.8 0
2.5 0.8 0
3 0.8 0
3.5 0.8 0
4 0.8 0
4.5 0.8 0
5 0.8 0
0 0.85 0
0.5 0.85 0
1 0.85 0
1.5 0.85 0
2 0.85 0
2.5 0.85 0
3 0.85 0
3.5 0.85 0
4 0.85 0
4.5 0.85 0
5 0.85 0
0 0.9 0
0.5 0.9 0
1 0.9 0
1.5 0.9 0
2 0.9 0
2.5 0.9 0
3 0.9 0
3.5 0.9 0
4 0.9 0
4.5 0.9 0
5 0.9 0
0 0.95 0
0.5 0.95 0
1 0.95 0
1.5 0.95 0
2 0.95 0
2.5 0.95 0
3 0.95 0
3.5 0.95 0
4 0.95 0
4.5 0.95 0
5 0.95 0
0 1 0
0.5 1 0
1 1 0
1.5 1 0
2 1 0
2.5 1 0
3 1 0
3.5 1 0
4 1 0
4.5 1 0
5 1 0
0 0 0.1
0.5 0 0.1
1 0 0.1
1.5 0 0.1
2 0 0.1
2.5 0 0.1
3 0 0.1
3.5 0 0.1
4 0 0.1
4.5 0 0.1
5 0 0.1
0 0.05 0.1
0.5 0.05 0.1
1 0.05 0.1
1.5 0.05 0.1
2 0.05 0.1
2.5 0.05 0.1
3 0.05 0.1
3.5 0.05 0.1
4 0.05 0.1
4.5 0.05 0.1
5 0.05 0.1
0 0.1 0.1
0.5 0.1 0.1
1 0.1 0.1
1.5 0.1 0.1
2 0.1 0.1
2.5 0.1 0.1
3 0.1 0.1
3.5 0.1 0.1
4 0.1 0.1
4.5 0.1 0.1
5 0.1 0.1
0 0.15 0.1
0.5 0.15 0.1
1 0.15 0.1
1.5 0.15 0.1
2 0.15 0.1
2.5 0.15 0.1
3 0.15 0.1
3.5 0.15 0.1
4 0.15 0.1
4.5 0.15 0.1
5 0.15 0.1
0 0.2 0.1
0.5 0.2 0.1
1 0.2 0.1
1.5 0.2 0.1
2 0.2 0.1
2.5 0.2 0.1
3 0.2 0.1
3.5 0.2 0.1
4 0.2 0.1
4.5 0.2 0.1
5 0.2 0.1
0 0.25 0.1
0.5 0.25 0.1
1 0.25 0.1
1.5 0.25 0.1
2 0.25 0.1
2.5 0.25 0.1
3 0.25 0.1
3.5 0.25 0.1
4 0.25 0.1
4.5 0.25 0.1
5 0.25 0.1
0 0.3 0.1
0.5 0.3 0.1
1 0.3 0.1
1.5 0.3 0.1
2 0.3 0.1
2.5 0.3 0.1
3 0.3 0.1
3.5 0.3 0.1
4 0.3 0.1
4.5 0.3 0.1
5 0.3 0.1
0 0.35 0.1
0.5 0.35 0.1
1 0.35 0.1
1.5 0.35 0.1
2 0.35 0.1
2.5 0.35 0.1
3 0.35 0.1
3.5 0.35 0.1
4 0.35 0.1
4.5 0.35 0.1
5 0.35 0.1
0 0.4 0.1
0.5 0.4 0.1
1 0.4 0.1
1.5 0.4 0.1
2 0.4 0.1
2.5 0.4 0.1
3 0.4 0.1
3.5 0.4 0.1
4 0.4 0.1
4.5 0.4 0.1
5 0.4 0.1
0 0.45 0.1
0.5 0.45 0.1
1 0.45 0.1
1.5 0.45 0.1
2 0.45 0.1
2.5 0.45 0.1
3 0.45 0.1
3.5 0.45 0.1
4 0.45 0.1
4.5 0.45 0.1
5 0.45 0.1
0 0.5 0.1
0.5 0.5 0.1
1 0.5 0.1
1.5 0.5 0.1
2 0.5 0.1
2.5 0.5 0.1
3 0.5 0.1
3.5 0.5 0.1
4 0.5 0.1
4.5 0.5 0.1
5 0.5 0.1
0 0.55 0.1
0.5 0.55 0.1
1 0.55 0.1
1.5 0.55 0.1
2 0.55 0.1
2.5 0.55 0.1
3 0.55 0.1
3.5 0.55 0.1
4 0.55 0.1
4.5 0.55 0.1
5 0.55 0.1
0 0.6 0.1
0.5 0.6 0.1
1 0.6 0.1
1.5 0.6 0.1
2 0.6 0.1
2.5 0.6 0.1
3 0.6 0.1
3.5 0.6 0.1
4 0.6 0.1
4.5 0.6 0.1
5 0.6 0.1
0 0.65 0.1
0.5 0.65 0.1
1 0.65 0.1
1.5 0.65 0.1
2 0.65 0.1
2.5 0.65 0.1
3 0.65 0.1
3.5 0.65 0.1
4 0.65 0.1
4.5 0.65 0.1
5 0.65 0.1
0 0.7 0.1
0.5 0.7 0.1
1 0.7 0.1
1.5 0.7 0.1
2 0.7 0.1
2.5 0.7 0.1
3 0.7 0.1
3.5 0.7 0.1
4 0.7 0.1
4.5 0.7 0.1
5 0.7 0.1
0 0.75 0.1
0.5 0.75 0.1
1 0.75 0.1
1.5 0.75 0.1
2 0.75 0.1
2.5 0.75 0.1
3 0.75 0.1
3.5 0.75 0.1
4 0.75 0.1
4.5 0.75 0.1
5 0.75 0.1
0 0.8 0.1
0.5 0.8 0.1
1 0.8 0.1
1.5 0.8 0.1
2 0.8 0.1
2.5 0.8 0.1
3 0.8 0.1
3.5 0.8 0.1
4 0.8 0.1
4.5 0.8 0.1
5 0.8 0.1
0 0.85 0.1
0.5 0.85 0.1
1 0.85 0.1
1.5 0.85 0.1
2 0.85 0.1
2.5 0.85 0.1
3 0.85 0.1
3.5 0.85 0.1
4 0.85 0.1
4.5 0.85 0.1
5 0.85 0.1
0 0.9 0.1
0.5 0.9 0.1
1 0.9 0.1
1.5 0.9 0.1
2 0.9 0.1
2.5 0.9 0.1
3 0.9 0.1
3.5 0.9 0.1
4 0.9 0.1
4.5 0.9 0.1
5 0.9 0.1
0 0.95 0.1
0.5 0.95 0.1
1 0.95 0.1
1.5 0.95 0.1
2 0.95 0.1
2.5 0.95 0.1
3 0.95 0.1
3.5 0.95 0.1
4 0.95 0.1
4.5 0.95 0.1
5 0.95 0.1
0 1 0.1
0.5 1 0.1
1 1 0.1
1.5 1 0.1
2 1 0.1
2.5 1 0.1
3 1 0.1
3.5 1 0.1
4 1 0.1
4.5 1 0.1
5 1 0.1
0 0 0.2
0.5 0 0.2
1 0 0.2
1.5 0 0.2
2 0 0.2
2.5 0 0.2
3 0 0.2
3.5 0 0.2
4 0 0.2
4.5 0 0.2
5 0 0.2
0 0.05 0.2
0.5 0.05 0.2
1 0.05 0.2
1.5 0.05 0.2
2 0.05 0.2
2.5 0.05 0.2
3 0.05 0.2
3.5 0.05 0.2
4 0.05 0.2
4.5 0.05 0.2
5 0.05 0.2
0 0.1 0.2
0.5 0.1 0.2
1 0.1 0.2
1.5 0.1 0.2
2 0.1 0.2
2.5 0.1 0.2
3 0.1 0.2
3.5 0.1 0.2
4 0.1 0.2
4.5 0.1 0.2
5 0.1 0.2
0 0.15 0.2
0.5 0.15 0.2
1 0.15 0.2
1.5 0.15 0.2
2 0.15 0.2
2.5 0.15 0.2
3 0.15 0.2
3.5 0.15 0.2
4 0.15 0.2
4.5 0.15 0.2
5 0.15 0.2
0 0.2 0.2
0.5 0.2 0.2
1 0.2 0.2
1.5 0.2 0.2
2 0.2 0.2
2.5 0.2 0.2
3 0.2 0.2
3.5 0.2 0.2
4 0.2 0.2
4.5 0.2 0.2
5 0.2 0.2
0 0.25 0.2
0.5 0.25 0.2
1 0.25 0.2
1.5 0.25 0.2
2 0.25 0.2
2.5 0.25 0.2
3 0.25 0.2
3.5 0.25 0.2
4 0.25 0.2
4.5 0.25 0.2
5 0.25 0.2
0 0.3 0.2
0.5 0.3 0.2
1 0.3 0.2
1.5 0.3 0.2
2 0.3 0.2
2.5 0.3 0.2
3 0.3 0.2
3.5 0.3 0.2
4 0.3 0.2
4.5 0.3 0.2
5 0.3 0.2
0 0.35 0.2
0.5 0.35 0.2
1 0.35 0.2
1.5 0.35 0.2
2 0.35 0.2
2.5 0.35 0.2
3 0.35 0.2
3.5 0.35 0.2
4 0.35 0.2
4.5 0.35 0.2
5 0.35 0.2
0 0.4 0.2
0.5 0.4 0.2
1 0.4 0.2
1.5 0.4 0.2
2 0.4 0.2
2.5 0.4 0.2
3 0.4 0.2
3.5 0.4 0.2
4 0.4 0.2
4.5 0.4 0.2
5 0.4 0.2
0 0.45 0.2
0.5 0.45 0.2
1 0.45 0.2
1.5 0.45 0.2
2 0.45 0.2
2.5 0.45 0.2
3 0.45 0.2
3.5 0.45 0.2
4 0.45 0.2
4.5 0.45 0.2
5 0.45 0.2
0 0.5 0.2
0.5 0.5 0.2
1 0.5 0.2
1.5 0.5 0.2
2 0.5 0.2
2.5 0.5 0.2
3 0.5 0.2
3.5 0.5 0.2
4 0.5 0.2
4.5 0.5 0.2
5 0.5 0.2
0 0.55 0.2
0.5 0.55 0.2
1 0.55 0.2
1.5 0.55 0.2
2 0.55 0.2
2.5 0.55 0.2
3 0.55 0.2
3.5 0.55 0.2
4 0.55 0.2
4.5 0.55 0.2
5 0.55 0.2
0 0.6 0.2
0.5 0.6 0.2
1 0.6 0.2
1.5 0.6 0.2
2 0.6 0.2
2.5 0.6 0.2
3 0.6 0.2
3.5 0.6 0.2
4 0.6 0.2
4.5 0.6 0.2
5 0.6 0.2
0 0.65 0.2
0.5 0.65 0.2
1 0.65 0.2
1.5 0.65 0.2
2 0.65 0.2
2.5 0.65 0.2
3 0.65 0.2
3.5 0.65 0.2
4 0.65 0.2
4.5 0.65 0.2
5 0.65 0.2
0 0.7 0.2
0.5 0.7 0.2
1 0.7 0.2
1.5 0.7 0.2
2 0.7 0.2
2.5 0.7 0.2
3 0.7 0.2
3.5 0.7 0.2
4 0.7 0.2
4.5 0.7 0.2
5 0.7 0.2
0 0.75 0.2
0.5 0.75 0.2
1 0.75 0.2
1.5 0.75 0.2
2 0.75 0.2
2.5 0.75 0.2
3 0.75 0.2
3.5 0.75 0.2
4 0.75 0.2
4.5 0.75 0.2
5 0.75 0.2
0 0.8 0.2
0.5 0.8 0.2
1 0.8 0.2
1.5 0.8 0.2
2 0.8 0.2
2.5 0.8 0.2
3 0.8 0.2
3.5 0.8 0.2
4 0.8 0.2
4.5 0.8 0.2
5 0.8 0.2
0 0.85 0.2
0.5 0.85 0.2
1 0.85 0.2
1.5 0.85 0.2
2 0.85 0.2
2.5 0.85 0.2
3 0.85 0.2
3.5 0.85 0.2
4 0.85 0.2
4.5 0.85 0.2
5 0.85 0.2
0 0.9 0.2
0.5 0.9 0.2
1 0.9 0.2
1.5 0.9 0.2
2 0.9 0.2
2.5 0.9 0.2
3 0.9 0.2
3.5 0.9 0.2
4 0.9 0.2
4.5 0.9 0.2
5 0.9 0.2
0 0.95 0.2
0.5 0.95 0.2
1 0.95 0.2
1.5 0.95 0.2
2 0.95 0.2
2.5 0.95 0.2
3 0.95 0.2
3.5 0.95 0.2
4 0.95 0.2
4.5 0.95 0.2
5 0.95 0.2
0 1 0.2
0.5 1 0.2
1 1 0.2
1.5 1 0.2
2 1 0.2
2.5 1 0.2
3 1 0.2
3.5 1 0.2
4 1 0.2
4.5 1 0.2
5 1 0.2
0 0 0.3
0.5 0 0.3
1 0 0.3
1.5 0 0.3
2 0 0.3
2.5 0 0.3
3 0 0.3
3.5 0 0.3
4 0 0.3
4.5 0 0.3
5 0 0.3
0 0.05 0.3
0.5 0.05 0.3
1 0.05 0.3
1.5 0.05 0.3
2 0.05 0.3
2.5 0.05 0.3
3 0.05 0.3
3.5 0.05 0.3
4 0.05 0.3
4.5 0.05 0.3
5 0.05 0.3
0 0.1 0.3
0.5 0.1 0.3
1 0.1 0.3
1.5 0.1 0.3
2 0.1 0.3
2.5 0.1 0.3
3 0.1 0.3
3.5 0.1 0.3
4 0.1 0.3
4.5 0.1 0.3
5 0.1 0.3
0 0.15 0.3
0.5 0.15 0.3
1 0.15 0.3
1.5 0.15 0.3
2 0.15 0.3
2.5 0.15 0.3
3 0.15 0.3
3.5 0.15 0.3
4 0.15 0.3
4.5 0.15 0.3
5 0.15 0.3
0 0.2 0.3
0.5 0.2 0.3
1 0.2 0.3
1.5 0.2 0.3
2 0.2 0.3
2.5 0.2 0.3
3 0.2 0.3
3.5 0.2 0.3
4 0.2 0.3
4.5 0.2 0.3
5 0.2 0.3
0 0.25 0.3
0.5 0.25 0.3
1 0.25 0.3
1.5 0.25 0.3
2 0.25 0.3
2.5 0.25 0.3
3 0.25 0.3
3.5 0.25 0.3
4 0.25 0.3
4.5 0.25 0.3
5 0.25 0.3
0 0.3 0.3
0.5 0.3 0.3
1 0.3 0.3
1.5 0.3 0.3
2 0.3 0.3
2.5 0.3 0.3
3 0.3 0.3
3.5 0.3 0.3
4 0.3 0.3
4.5 0.3 0.3
5 0.3 0.3
0 0.35 0.3
0.5 0.35 0.3
1 0.35 0.3
1.5 0.35 0.3
2 0.35 0.3
2.5 0.35 0.3
3 0.35 0.3
3.5 0.35 0.3
4 0.35 0.3
4.5 0.35 0.3
5 0.35 0.3
0 0.4 0.3
0.5 0.4 0.3
1 0.4 0.3
1.5 0.4 0.3
2 0.4 0.3
2.5 0.4 0.3
3 0.4 0.3
3.5 0.4 0.3
4 0.4 0.3
4.5 0.4 0.3
5 0.4 0.3
0 0.45 0.3
0.5 0.45 0.3
1 0.45 0.3
1.5 0.45 0.3
2 0.45 0.3
2.5 0.45 0.3
3 0.45 0.3
3.5 0.45 0.3
4 0.45 0.3
4.5 0.45 0.3
5 0.45 0.3
0 0.5 0.3
0.5 0.5 0.3
1 0.5 0.3
1.5 0.5 0.3
2 0.5 0.3
2.5 0.5 0.3
3 0.5 0.3
3.5 0.5 0.3
4 0.5 0.3
4.5 0.5 0.3
5 0.5 0.3
0 0.55 0.3
0.5 0.55 0.3
1 0.55 0.3
1.5 0.55 0.3
2 0.55 0.3
2.5 0.55 0.3
3 0.55 0.3
3.5 0.55 0.3
4 0.55 0.3
4.5 0.55 0.3
5 0.55 0.3
0 0.6 0.3
0.5 0.6 0.3
1 0.6 0.3
1.5 0.6 0.3
2 0.6 0.3
2.5 0.6 0.3
3 0.6 0.3
3.5 0.6 0.3
4 0.6 0.3
4.5 0.6 0.3
5 0.6 0.3
0 0.65 0.3
0.5 0.65 0.3
1 0.65 0.3
1.5 0.65 0.3
2 0.65 0.3
2.5 0.65 0.3
3 0.65 0.3
3.5 0.65 0.3
4 0.65 0.3
4.5 0.65 0.3
5 0.65 0.3
0 0.7 0.3
0.5 0.7 0.3
1 0.7 0.3
1.5 0.7 0.3
2 0.7 0.3
2.5 0.7 0.3
3 0.7 0.3
3.5 0.7 0.3
4 0.7 0.3
4.5 0.7 0.3
5 0.7 0.3
0 0.75 0.3
0.5 0.75 0.3
1 0.75 0.3
1.5 0.75 0.3
2 0.75 0.3
2.5 0.75 0.3
3 0.75 0.3
3.5 0.75 0.3
4 0.75 0.3
4.5 0.75 0.3
5 0.75 0.3
0 0.8 0.3
0.5 0.8 0.3
1 0.8 0.3
1.5 0.8 0.3
2 0.8 0.3
2.5 0.8 0.3
3 0.8 0.3
3.5 0.8 0.3
4 0.8 0.3
4.5 0.8 0.3
5 0.8 0.3
0 0.85 0.3
0.5 0.85 0.3
1 0.85 0.3
1.5 0.85 0.3
2 0.85 0.3
2.5 0.85 0.3
3 0.85 0.3
3.5 0.85 0.3
4 0.85 0.3
4.5 0.85 0.3
5 0.85 0.3
0 0.9 0.3
0.5 0.9 0.3
1 0.9 0.3
1.5 0.9 0.3
2 0.9 0.3
2.5 0.9 0.3
3 0.9 0.3
3.5 0.9 0.3
4 0.9 0.3
4.5 0.9 0.3
5 0.9 0.3
0 0.95 0.3
0.5 0.95 0.3
1 0.95 0.3
1.5 0.95 0.3
2 0.95 0.3
2.5 0.95 0.3
3 0.95 0.3
3.5 0.95 0.3
4 0.95 0.3
4.5 0.95 0.3
5 0.95 0.3
0 1 0.3
0.5 1 0.3
1 1 0.3
1.5 1 0.3
2 1 0.3
2.5 1 0.3
3 1 0.3
3.5 1 0.3
4 1 0.3
4.5 1 0.3
5 1 0.3
0 0 0.4
[...]
CELL_DATA 2000
SCALARS pressure float 1
LOOKUP_TABLE default
0
0
0.904076
0.993443
0.814244
0.654756
0.499851
0.346134
0.191955
0.0241663
0
0
0.902029
0.985872
0.813595
0.654624
0.49982
0.346129
0.191976
0.026631
0
0
0.865419
0.981389
0.812651
0.654433
0.499775
0.346124
0.192057
0.0289415
0
0
0.853201
0.971335
0.811514
0.654199
0.499719
0.346118
0.192174
0.0308746
1.52494
1.65796
0.860653
0.962101
0.810218
0.653928
0.499653
0.346111
0.192302
0.0324442
1.52142
1.65103
0.886657
0.954746
0.808873
0.653632
0.499578
0.346102
0.192427
0.0336915
1.51374
1.63975
0.918332
0.949594
0.807568
0.653321
0.499497
0.346091
0.192538
0.0346502
1.50268
1.6262
0.953546
0.946373
0.80636
0.653002
0.499412
0.346076
0.192625
0.0353466
1.49101
1.61212
0.986972
0.944677
0.805284
0.652683
0.499323
0.346058
0.192684
0.0358
1.48068
1.59863
1.0172
0.94409
0.804343
0.652371
0.499234
0.346036
0.192711
0.0360229
1.47243
1.58627
1.04385
0.944271
0.803531
0.652069
0.499144
0.346011
0.192704
0.0360217
1.46667
1.57532
1.06689
0.944945
0.802833
0.651783
0.499056
0.345983
0.192664
0.0357963
1.46389
1.56584
1.08644
0.945881
0.802232
0.651514
0.49897
0.345953
0.192592
0.0353405
1.46417
1.55785
1.10267
0.946897
0.801709
0.651263
0.49889
0.345921
0.192493
0.0346418
1.46732
1.55131
1.11582
0.947845
0.801246
0.651034
0.498815
0.34589
0.192371
0.033681
1.47316
1.5462
1.1261
0.948609
0.800827
0.650825
0.498747
0.34586
0.192236
0.0324318
1.48115
1.54249
1.13372
0.949099
0.800438
0.650639
0.498686
0.345832
0.192098
0.0308605
1.4895
1.5401
1.13887
0.949253
0.800068
0.650476
0.498635
0.34581
0.191974
0.0289259
1.49548
1.5391
1.14175
0.949061
0.799723
0.650341
0.498594
0.345793
0.191887
0.0266143
1.49823
1.53928
1.14233
0.948565
0.799429
0.650243
0.498566
0.345783
0.191863
0.0241488
0
0
0.913495
0.990017
0.814079
0.654701
0.499838
0.346146
0.192148
0.0285541
0
0
0.909707
0.983379
0.813197
0.654535
0.499801
0.346138
0.192166
0.0320447
0
0
0.874741
0.979156
0.812272
0.654341
0.499755
0.346133
0.192281
0.0345119
0
0
0.884352
0.971808
0.811117
0.654109
0.4997
0.346128
0.192415
0.0364831
1.50907
1.66538
0.827196
0.961475
0.809841
0.653847
0.499635
0.346123
0.192554
0.0380791
1.50487
1.67816
0.846689
0.951881
0.808522
0.653563
0.499564
0.346115
0.192685
0.0393443
1.49783
1.66042
0.891857
0.946789
0.807275
0.653265
0.499486
0.346105
0.192799
0.0403151
1.48872
1.63989
0.935095
0.944421
0.806147
0.652962
0.499404
0.346092
0.192889
0.0410194
1.47836
1.62127
0.974886
0.943419
0.805151
0.652659
0.49932
0.346075
0.192949
0.0414775
1.46816
1.60476
1.00959
0.943346
0.804284
0.652362
0.499233
0.346054
0.192977
0.0417027
1.46001
1.59024
1.03924
0.943908
0.803536
0.652076
0.499147
0.34603
0.19297
0.0417016
1.4544
1.57773
1.06429
0.94486
0.802893
0.651805
0.499063
0.346003
0.19293
0.041474
1.45147
1.56718
1.08519
0.946001
0.802339
0.651549
0.498981
0.345973
0.192857
0.0410136
1.45131
1.55848
1.10232
0.947166
0.801856
0.651311
0.498904
0.345942
0.192756
0.0403071
1.45409
1.55143
1.11604
0.948222
0.801427
0.651091
0.498831
0.34591
0.192631
0.0393343
1.45962
1.54575
1.12662
0.949064
0.801035
0.650891
0.498765
0.34588
0.19249
0.0380672
1.46622
1.54126
1.13434
0.949611
0.800666
0.650712
0.498707
0.345852
0.192342
0.0364696
1.47268
1.53805
1.13944
0.949806
0.800314
0.650554
0.498656
0.345829
0.192201
0.034497
1.47827
1.53651
1.14213
0.949591
0.799963
0.650416
0.498615
0.345811
0.19208
0.0320286
1.48241
1.53754
1.14246
0.948902
0.799593
0.650295
0.498581
0.345801
0.192057
0.0285371
0
0
0.924122
0.989573
0.814055
0.654658
0.499827
0.346167
0.192448
0.0318473
0
0
0.919457
0.983858
0.81316
0.654487
0.499788
0.346161
0.192476
0.0355051
0
0
0.890679
0.980728
0.812271
0.654292
0.499742
0.346156
0.192604
0.0380687
0
0
0.901971
0.974969
0.811186
0.654066
0.499688
0.346153
0.19275
0.0401016
1.4931
1.66137
0.817094
0.964984
0.809953
0.65381
0.499625
0.346148
0.192897
0.0417375
1.4884
1.69769
0.803736
0.953279
0.808612
0.653532
0.499555
0.346142
0.193035
0.0430293
1.48387
1.69336
0.850119
0.945161
0.807278
0.65324
0.49948
0.346133
0.193154
0.0440177
1.48244
1.6678
0.908825
0.941777
0.806078
0.652943
0.4994
0.346121
0.193246
0.0447335
1.48263
1.64076
0.957758
0.941135
0.80506
0.652647
0.499318
0.346105
0.193309
0.0451985
1.48265
1.61708
0.998351
0.941614
0.804207
0.652359
0.499235
0.346085
0.193337
0.045427
1.48156
1.59737
1.0322
0.942659
0.803487
0.652082
0.499152
0.346062
0.193331
0.0454259
1.47911
1.58145
1.06025
0.944006
0.802878
0.651819
0.49907
0.346035
0.19329
0.0451951
1.47603
1.56894
1.08328
0.945462
0.802358
0.651572
0.498991
0.346005
0.193215
0.0447279
1.47232
1.55944
1.10192
0.946877
0.801907
0.651342
0.498915
0.345974
0.193111
0.0440101
1.46758
1.55245
1.11664
0.948131
0.801507
0.651131
0.498845
0.345943
0.192982
0.0430196
1.46241
1.54728
1.12776
0.949131
0.801141
0.650937
0.498781
0.345912
0.192834
0.041726
1.45824
1.543
1.13553
0.949804
0.800798
0.650763
0.498723
0.345884
0.192678
0.0400886
1.45734
1.53934
1.1404
0.950078
0.800463
0.650608
0.498674
0.34586
0.192525
0.0380543
1.46099
1.53723
1.14288
0.949882
0.800114
0.65047
0.498632
0.345841
0.192391
0.0354895
1.46614
1.53814
1.14309
0.949167
0.799731
0.650345
0.498597
0.34583
0.192359
0.0318307
0
0
0.928997
0.990347
0.814117
0.654636
0.49982
0.34619
0.192708
0.0339184
0
0
0.924307
0.984939
0.813233
0.654464
0.499781
0.346183
0.192739
0.0376111
0
0
0.895272
0.98239
0.812376
0.654272
0.499735
0.34618
0.192872
0.0402104
0
0
0.902324
0.977356
0.811342
0.65405
0.499682
0.346177
0.193024
0.0422731
1.48507
1.67252
0.813381
0.967715
0.81016
0.6538
0.49962
0.346174
0.193176
0.0439323
1.48088
1.71397
0.786441
0.955602
0.808847
0.653527
0.499552
0.346168
0.193318
0.0452416
1.47938
1.71605
0.817123
0.945966
0.80747
0.653239
0.499478
0.34616
0.19344
0.0462428
1.48546
1.691
0.879083
0.94093
0.806167
0.652942
0.4994
0.346148
0.193535
0.0469673
1.49824
1.6583
0.939073
0.939604
0.805054
0.652647
0.499319
0.346133
0.193599
0.0474377
1.51291
1.62748
0.987058
0.940043
0.804145
0.652359
0.499237
0.346114
0.193628
0.0476688
1.52375
1.60063
1.02538
0.941232
0.8034
0.652084
0.499155
0.346091
0.193622
0.0476677
1.5276
1.57915
1.05661
0.942779
0.802785
0.651823
0.499075
0.346064
0.193581
0.0474344
1.52447
1.56408
1.08204
0.94446
0.802271
0.651579
0.498997
0.346035
0.193505
0.0469618
1.51424
1.55501
1.10226
0.946128
0.801838
0.651354
0.498923
0.346004
0.193398
0.0462352
1.49709
1.55003
1.11765
0.947655
0.801473
0.651148
0.498854
0.345972
0.193266
0.0452322
1.47668
1.54677
1.12882
0.948904
0.801149
0.650961
0.498791
0.345941
0.193115
0.0439211
1.4597
1.54383
1.13647
0.949754
0.80084
0.650791
0.498735
0.345913
0.192953
0.0422603
1.45155
1.54086
1.14122
0.950127
0.800525
0.650639
0.498685
0.345888
0.192795
0.0401962
1.45257
1.53875
1.14357
0.949979
0.800186
0.650502
0.498644
0.345869
0.192656
0.0375958
1.45748
1.53964
1.14372
0.949277
0.799805
0.650377
0.498609
0.345857
0.19262
0.033902
0
0
0.929958
0.99093
0.814175
0.654628
0.499817
0.346203
0.192854
0.0349093
0
0
0.924809
0.985625
0.813298
0.654457
0.499778
0.346197
0.192886
0.0386106
0
0
0.894545
0.983294
0.812457
0.654265
0.499733
0.346194
0.193021
0.0412217
0
0
0.899873
0.978526
0.811446
0.654045
0.499679
0.346192
0.193175
0.043296
1.48227
1.68102
0.809412
0.969057
0.810289
0.653798
0.499618
0.346189
0.19333
0.0449652
1.47856
1.7239
0.780472
0.956913
0.808997
0.653529
0.499551
0.346184
0.193473
0.0462825
1.47951
1.72736
0.806554
0.94705
0.80763
0.653244
0.499478
0.346176
0.193597
0.0472898
1.49097
1.70239
0.86333
0.941507
0.806309
0.65295
0.4994
0.346165
0.193693
0.0480187
1.51132
1.66753
0.924431
0.939444
0.805133
0.652654
0.49932
0.34615
0.193758
0.048492
1.53475
1.63277
0.977896
0.939311
0.80414
0.652362
0.499239
0.346131
0.193788
0.0487245
1.55395
1.60164
1.0213
0.940232
0.803327
0.652082
0.499157
0.346108
0.193782
0.0487234
1.56253
1.57642
1.05556
0.941762
0.802674
0.651819
0.499077
0.346081
0.193739
0.0484888
1.5593
1.55965
1.08227
0.943619
0.802163
0.651577
0.499
0.346052
0.193663
0.0480134
1.54413
1.55112
1.10278
0.945545
0.801763
0.651355
0.498927
0.346021
0.193555
0.0472824
1.51837
1.54756
1.11818
0.947302
0.801432
0.651153
0.498859
0.34599
0.193422
0.0462732
1.48899
1.54593
1.12935
0.948714
0.801136
0.65097
0.498796
0.345959
0.193268
0.0449541
1.46436
1.54418
1.13698
0.94967
0.800846
0.650803
0.49874
0.34593
0.193105
0.0432834
1.45094
1.54182
1.14168
0.950108
0.800544
0.650653
0.498691
0.345905
0.192944
0.0412077
1.4497
1.53984
1.14397
0.949993
0.800212
0.650517
0.49865
0.345885
0.192804
0.0385955
1.45428
1.54075
1.14409
0.949305
0.799834
0.650392
0.498615
0.345873
0.192767
0.0348931
0
0
0.929958
0.99093
0.814175
0.654628
0.499817
0.346203
0.192854
0.0349093
0
0
0.924809
0.985625
0.813298
0.654457
0.499778
0.346197
0.192886
0.0386106
0
0
0.894545
0.983294
0.812457
0.654265
0.499733
0.346194
0.193021
0.0412217
0
0
0.899873
0.978526
0.811446
0.654045
0.499679
0.346192
0.193175
0.043296
1.48227
1.68102
0.809412
0.969057
0.810289
0.653798
0.499618
0.346189
0.19333
0.0449652
1.47856
1.7239
0.780472
0.956913
0.808997
0.653529
0.499551
0.346184
0.193473
0.0462825
1.47951
1.72736
0.806554
0.94705
0.80763
0.653244
0.499478
0.346176
0.193597
0.0472898
1.49097
1.70239
0.86333
0.941507
0.806309
0.65295
0.4994
0.346165
0.193693
0.0480187
1.51132
1.66753
0.924431
0.939444
0.805133
0.652654
0.49932
0.34615
0.193758
0.048492
1.53475
1.63277
0.977896
0.939311
0.80414
0.652362
0.499239
0.346131
0.193788
0.0487245
1.55395
1.60164
1.0213
0.940232
0.803327
0.652082
0.499157
0.346108
0.193782
0.0487234
1.56253
1.57642
1.05556
0.941762
0.802674
0.651819
0.499077
0.346081
0.193739
0.0484888
1.5593
1.55965
1.08227
0.943619
0.802163
0.651577
0.499
0.346052
0.193663
0.0480134
1.54413
1.55112
1.10278
0.945545
0.801763
0.651355
0.498927
0.346021
0.193555
0.0472824
1.51837
1.54756
1.11818
0.947302
0.801432
0.651153
0.498859
0.34599
0.193422
0.0462732
1.48899
1.54593
1.12935
0.948714
0.801136
0.65097
0.498796
0.345959
0.193268
0.0449541
1.46436
1.54418
1.13698
0.94967
0.800846
0.650803
0.49874
0.34593
0.193105
0.0432834
1.45094
1.54182
1.14168
0.950108
0.800544
0.650653
0.498691
0.345905
0.192944
0.0412077
1.4497
1.53984
1.14397
0.949993
0.800212
0.650517
0.49865
0.345885
0.192804
0.0385955
1.45428
1.54075
1.14409
0.949305
0.799834
0.650392
0.498615
0.345873
0.192767
0.0348931
0
0
0.928997
0.990347
0.814117
0.654636
0.49982
0.34619
0.192708
0.0339184
0
0
0.924307
0.984939
0.813233
0.654464
0.499781
0.346183
0.192739
0.0376111
0
0
0.895272
0.98239
0.812376
0.654272
0.499735
0.34618
0.192872
0.0402104
0
0
0.902324
0.977356
0.811342
0.65405
0.499682
0.346177
0.193024
0.0422731
1.48507
1.67252
0.813381
0.967715
0.81016
0.6538
0.49962
0.346174
0.193176
0.0439323
1.48088
1.71397
0.786441
0.955602
0.808847
0.653527
0.499552
0.346168
0.193318
0.0452416
1.47938
1.71605
0.817123
0.945966
0.80747
0.653239
0.499478
0.34616
0.19344
0.0462428
1.48546
1.691
0.879083
0.94093
0.806167
0.652942
0.4994
0.346148
0.193535
0.0469673
1.49824
1.6583
0.939073
0.939604
0.805054
0.652647
0.499319
0.346133
0.193599
0.0474377
1.51291
1.62748
0.987058
0.940043
0.804145
0.652359
0.499237
0.346114
0.193628
0.0476688
1.52375
1.60063
1.02538
0.941232
0.8034
0.652084
0.499155
0.346091
0.193622
0.0476677
1.5276
1.57915
1.05661
0.942779
0.802785
0.651823
0.499075
0.346064
0.193581
0.0474344
1.52447
1.56408
1.08204
0.94446
0.802271
0.651579
0.498997
0.346035
0.193505
0.0469618
1.51424
1.55501
1.10226
0.946128
0.801838
0.651354
0.498923
0.346004
0.193398
0.0462352
1.49709
1.55003
1.11765
0.947655
0.801473
0.651148
0.498854
0.345972
0.193266
0.0452322
1.47668
1.54677
1.12882
0.948904
0.801149
0.650961
0.498791
0.345941
0.193115
0.0439211
1.4597
1.54383
1.13647
0.949754
0.80084
0.650791
0.498735
0.345913
0.192953
0.0422603
1.45155
1.54086
1.14122
0.950127
0.800525
0.650639
0.498685
0.345888
0.192795
0.0401962
1.45257
1.53875
1.14357
0.949979
0.800186
0.650502
0.498644
0.345869
0.192656
0.0375958
1.45748
1.53964
1.14372
0.949277
0.799805
0.650377
0.498609
0.345857
0.19262
0.033902
0
0
0.924122
0.989573
0.814055
0.654658
0.499827
0.346167
0.192448
0.0318473
0
0
0.919457
0.983858
0.81316
0.654487
0.499788
0.346161
0.192476
0.0355051
0
0
0.890679
0.980728
0.812271
0.654292
0.499742
0.346156
0.192604
0.0380687
0
0
0.901971
0.974969
0.811186
0.654066
0.499688
0.346153
0.19275
0.0401016
1.4931
1.66137
0.817094
0.964984
0.809953
0.65381
0.499625
0.346148
0.192897
0.0417375
1.4884
1.69769
0.803736
0.953279
0.808612
0.653532
0.499555
0.346142
0.193035
0.0430293
1.48387
1.69336
0.850119
0.945161
0.807278
0.65324
0.49948
0.346133
0.193154
0.0440177
1.48244
1.6678
0.908825
0.941777
0.806078
0.652943
0.4994
0.346121
0.193246
0.0447335
1.48263
1.64076
0.957758
0.941135
0.80506
0.652647
0.499318
0.346105
0.193309
0.0451985
1.48265
1.61708
0.998351
0.941614
0.804207
0.652359
0.499235
0.346085
0.193337
0.045427
1.48156
1.59737
1.0322
0.942659
0.803487
0.652082
0.499152
0.346062
0.193331
0.0454259
1.47911
1.58145
1.06025
0.944006
0.802878
0.651819
0.49907
0.346035
0.19329
0.0451951
1.47603
1.56894
1.08328
0.945462
0.802358
0.651572
0.498991
0.346005
0.193215
0.0447279
1.47232
1.55944
1.10192
0.946877
0.801907
0.651342
0.498915
0.345974
0.193111
0.0440101
1.46758
1.55245
1.11664
0.948131
0.801507
0.651131
0.498845
0.345943
0.192982
0.0430196
1.46241
1.54728
1.12776
0.949131
0.801141
0.650937
0.498781
0.345912
0.192834
0.041726
1.45824
1.543
1.13553
0.949804
0.800798
0.650763
0.498723
0.345884
0.192678
0.0400886
1.45734
1.53934
1.1404
0.950078
0.800463
0.650608
0.498674
0.34586
0.192525
0.0380543
1.46099
1.53723
1.14288
0.949882
0.800114
0.65047
0.498632
0.345841
0.192391
0.0354895
1.46614
1.53814
1.14309
0.949167
0.799731
0.650345
0.498597
0.34583
0.192359
0.0318307
0
0
0.913495
0.990017
0.814079
0.654701
0.499838
0.346146
0.192148
0.0285541
0
0
0.909707
0.983379
0.813197
0.654535
0.499801
0.346138
0.192166
0.0320447
0
0
0.874741
0.979156
0.812272
0.654341
0.499755
0.346133
0.192281
0.0345119
0
0
0.884352
0.971808
0.811117
0.654109
0.4997
0.346128
0.192415
0.0364831
1.50907
1.66538
0.827196
0.961475
0.809841
0.653847
0.499635
0.346123
0.192554
0.0380791
1.50487
1.67816
0.846689
0.951881
0.808522
0.653563
0.499564
0.346115
0.192685
0.0393443
1.49783
1.66042
0.891857
0.946789
0.807275
0.653265
0.499486
0.346105
0.192799
0.0403151
1.48872
1.63989
0.935095
0.944421
0.806147
0.652962
0.499404
0.346092
0.192889
0.0410194
1.47836
1.62127
0.974886
0.943419
0.805151
0.652659
0.49932
0.346075
0.192949
0.0414775
1.46816
1.60476
1.00959
0.943346
0.804284
0.652362
0.499233
0.346054
0.192977
0.0417027
1.46001
1.59024
1.03924
0.943908
0.803536
0.652076
0.499147
0.34603
0.19297
0.0417016
1.4544
1.57773
1.06429
0.94486
0.802893
0.651805
0.499063
0.346003
0.19293
0.041474
1.45147
1.56718
1.08519
0.946001
0.802339
0.651549
0.498981
0.345973
0.192857
0.0410136
1.45131
1.55848
1.10232
0.947166
0.801856
0.651311
0.498904
0.345942
0.192756
0.0403071
1.45409
1.55143
1.11604
0.948222
0.801427
0.651091
0.498831
0.34591
0.192631
0.0393343
1.45962
1.54575
1.12662
0.949064
0.801035
0.650891
0.498765
0.34588
0.19249
0.0380672
1.46622
1.54126
1.13434
0.949611
0.800666
0.650712
0.498707
0.345852
0.192342
0.0364696
1.47268
1.53805
1.13944
0.949806
0.800314
0.650554
0.498656
0.345829
0.192201
0.034497
1.47827
1.53651
1.14213
0.949591
0.799963
0.650416
0.498615
0.345811
0.19208
0.0320286
1.48241
1.53754
1.14246
0.948902
0.799593
0.650295
0.498581
0.345801
0.192057
0.0285371
0
0
0.904076
0.993443
0.814244
0.654756
0.499851
0.346134
0.191955
0.0241663
0
0
0.902029
0.985872
0.813595
0.654624
0.49982
0.346129
0.191976
0.026631
0
0
0.865419
0.981389
0.812651
0.654433
0.499775
0.346124
0.192057
0.0289415
0
0
0.853201
0.971335
0.811514
0.654199
0.499719
0.346118
0.192174
0.0308746
1.52494
1.65796
0.860653
0.962101
0.810218
0.653928
0.499653
0.346111
0.192302
0.0324442
1.52142
1.65103
0.886657
0.954746
0.808873
0.653632
0.499578
0.346102
0.192427
0.0336915
1.51374
1.63975
0.918332
0.949594
0.807568
0.653321
0.499497
0.346091
0.192538
0.0346502
1.50268
1.6262
0.953546
0.946373
0.80636
0.653002
0.499412
0.346076
0.192625
0.0353466
1.49101
1.61212
0.986972
0.944677
0.805284
0.652683
0.499323
0.346058
0.192684
0.0358
1.48068
1.59863
1.0172
0.94409
0.804343
0.652371
0.499234
0.346036
0.192711
0.0360229
1.47243
1.58627
1.04385
0.944271
0.803531
0.652069
0.499144
0.346011
0.192704
0.0360217
1.46667
1.57532
1.06689
0.944945
0.802833
0.651783
0.499056
0.345983
0.192664
0.0357963
1.46389
1.56584
1.08644
0.945881
0.802232
0.651514
0.49897
0.345953
0.192592
0.0353405
1.46417
1.55785
1.10267
0.946897
0.801709
0.651263
0.49889
0.345921
0.192493
0.0346418
1.46732
1.55131
1.11582
0.947845
0.801246
0.651034
0.498815
0.34589
0.192371
0.033681
1.47316
1.5462
1.1261
0.948609
0.800827
0.650825
0.498747
0.34586
0.192236
0.0324318
1.48115
1.54249
1.13372
0.949099
0.800438
0.650639
0.498686
0.345832
0.192098
0.0308605
1.4895
1.5401
1.13887
0.949253
0.800068
0.650476
0.498635
0.34581
0.191974
0.0289259
1.49548
1.5391
1.14175
0.949061
0.799723
0.650341
0.498594
0.345793
0.191887
0.0266143
1.49823
1.53928
1.14233
0.948565
0.799429
0.650243
0.498566
0.345783
0.191863
0.0241488

VECTORS velocity float
0 0 0
0 0 0
0.771957 -0.0320818 -0.00113866
0.677861 -0.00290326 0.000865931
0.709307 -0.000725942 0.000103298
0.717563 -0.000161998 2.13806e-05
0.719418 -3.64761e-05 4.63553e-06
0.719867 -9.64096e-06 -2.21514e-06
0.720319 -1.39157e-05 -4.10512e-05
0.738418 -0.00123882 -0.00107343
0 0 0
0 0 0
-0.131119 -0.0951543 -0.000820531
0.690829 -0.0124129 0.00067877
0.762528 -0.00242007 0.000130631
0.773396 -0.000521643 2.75725e-05
0.775645 -0.000117035 5.93674e-06
0.776183 -3.08639e-05 -2.04484e-06
0.776822 -5.70548e-05 -4.42122e-05
0.783132 -0.00241611 -0.00128249
0 0 0
0 0 0
0.79297 -0.161174 0.000482759
0.727781 -0.0224983 0.000581959
0.767767 -0.00425604 0.000114218
0.777658 -0.000910996 2.66322e-05
0.779844 -0.000204262 5.87101e-06
0.780367 -5.35137e-05 -2.18908e-06
0.780921 -0.000105542 -4.78843e-05
0.786011 -0.00216282 -0.00131516
0 0 0
0 0 0
-0.116635 -0.229253 0.000474204
0.70849 -0.0312478 0.000125428
0.768539 -0.00596899 9.63276e-05
0.778164 -0.00128041 2.45352e-05
0.780191 -0.000287391 5.45949e-06
0.780674 -7.44512e-05 -2.41435e-06
0.781127 -0.000133788 -5.04803e-05
0.786294 -0.00178899 -0.00132914
0.419962 -0.0176814 -0.038283
0.83874 0.00693877 -0.0240536
0.797874 -0.258855 0.0113945
0.735171 -0.0398828 0.000979415
0.770471 -0.00752442 0.000109815
0.778481 -0.0016149 2.22711e-05
0.780269 -0.000362978 4.85036e-06
0.780698 -9.26762e-05 -2.66557e-06
0.781065 -0.00014392 -5.18831e-05
0.786391 -0.00144407 -0.00133674
0.495355 -0.0474819 -0.045776
0.964353 0.0132827 -0.0225956
0.913089 -0.245577 0.0143773
0.755175 -0.045196 0.00144254
0.772536 -0.00879917 0.000111959
0.778843 -0.00190338 1.91196e-05
0.780346 -0.000428842 4.0703e-06
0.78071 -0.000107667 -2.94072e-06
0.781006 -0.000140236 -5.27629e-05
0.786464 -0.00113468 -0.00134152
0.540909 -0.0651112 -0.0520737
0.970958 0.0104594 -0.0184589
0.92483 -0.2243 0.00924807
0.767528 -0.0480306 0.00109046
0.774613 -0.00977549 8.7768e-05
0.779251 -0.00213839 1.49126e-05
0.780435 -0.000483241 3.15769e-06
0.780725 -0.000119097 -3.22627e-06
0.780962 -0.000126068 -5.33304e-05
0.786521 -0.000854452 -0.00134454
0.579003 -0.0704544 -0.0576873
0.966039 0.00609628 -0.0157845
0.923434 -0.201158 0.00518467
0.77753 -0.0489599 0.000692956
0.776762 -0.0104438 6.07975e-05
0.779696 -0.00231423 1.04229e-05
0.780533 -0.000524786 2.16206e-06
0.780743 -0.000126794 -3.51337e-06
0.780932 -0.000104125 -5.37018e-05
0.786563 -0.00059646 -0.00134643
0.609954 -0.0654689 -0.0624932
0.960921 0.00249224 -0.0143987
0.921063 -0.178216 0.002815
0.786296 -0.0483845 0.000406632
0.778932 -0.0108037 3.50363e-05
0.780165 -0.00242715 5.86173e-06
0.780637 -0.000552465 1.11926e-06
0.780763 -0.000130723 -3.79491e-06
0.780914 -7.66783e-05 -5.39415e-05
0.786592 -0.000354043 -0.00134754
0.633648 -0.0522431 -0.0663937
0.956393 0.000405541 -0.0137348
0.918795 -0.156384 0.00131807
0.793943 -0.0466284 0.000207034
0.781055 -0.0108652 1.23794e-05