# vtk DataFile Version 2.0
TestTestTest
ASCII

DATASET STRUCTURED_GRID
DIMENSIONS 11 21 11
POINTS 2541 float
0 0 0
0.5 0 0
1 0 0
1.5 0 0
2 0 0
2.5 0 0
3 0 0
3.5 0 0
4 0 0
4.5 0 0
5 0 0
0 0.05 0
0.5 0.05 0
1 0.05 0
1.5 0.05 0
2 0.05 0
2.5 0.05 0
3 0.05 0
3.5 0.05 0
4 0.05 0
4.5 0.05 0
5 0.05 0
0 0.1 0
0.5 0.1 0
1 0.1 0
1.5 0.1 0
2 0.1 0
2.5 0.1 0
3 0.1 0
3.5 0.1 0
4 0.1 0
4.5 0.1 0
5 0.1 0
0 0.15 0
0.5 0.15 0
1 0.15 0
1.5 0.15 0
2 0.15 0
2.5 0.15 0
3 0.15 0
3.5 0.15 0
4 0.15 0
4.5 0.15 0
5 0.15 0
0 0.2 0
0.5 0.2 0
1 0.2 0
1.5 0.2 0
2 0.2 0
2.5 0.2 0
3 0.2 0
3.5 0.2 0
4 0.2 0
4.5 0.2 0
5 0.2 0
0 0.25 0
0.5 0.25 0
1 0.25 0
1.5 0.25 0
2 0.25 0
2.5 0.25 0
3 0.25 0
3.5 0.25 0
4 0.25 0
4.5 0.25 0
5 0.25 0
0 0.3 0
0.5 0.3 0
1 0.3 0
1.5 0.3 0
2 0.3 0
2.5 0.3 0
3 0.3 0
3.5 0.3 0
4 0.3 0
4.5 0.3 0
5 0.3 0
0 0.35 0
0.5 0.35 0
1 0.35 0
1.5 0.35 0
2 0.35 0
2.5 0.35 0
3 0.35 0
3.5 0.35 0
4 0.35 0
4.5 0.35 0
5 0.35 0
0 0.4 0
0.5 0.4 0
1 0.4 0
1.5 0.4 0
2 0.4 0
2.5 0.4 0
3 0.4 0
3.5 0.4 0
4 0.4 0
4.5 0.4 0
5 0.4 0
0 0.45 0
0.5 0.45 0
1 0.45 0
1.5 0.45 0
2 0.45 0
2.5 0.45 0
3 0.45 0
3.5 0.45 0
4 0.45 0
4.5 0.45 0
5 0.45 0
0 0.5 0
0.5 0.5 0
1 0.5 0
1.5 0.5 0
2 0.5 0
2.5 0.5 0
3 0.5 0
3.5 0.5 0
4 0.5 0
4.5 0.5 0
5 0.5 0
0 0.55 0
0.5 0.55 0
1 0.55 0
1.5 0.55 0
2 0.55 0
2.5 0.55 0
3 0.55 0
3.5 0.55 0
4 0.55 0
4.5 0.55 0
5 0.55 0
0 0.6 0
0.5 0.6 0
1 0.6 0
1.5 0.6 0
2 0.6 0
2.5 0.6 0
3 0.6 0
3.5 0.6 0
4 0.6 0
4.5 0.6 0
5 0.6 0
0 0.65 0
0.5 0.65 0
1 0.65 0
1.5 0.65 0
2 0.65 0
2.5 0.65 0
3 0.65 0
3.5 0.65 0
4 0.65 0
4.5 0.65 0
5 0.65 0
0 0.7 0
0.5 0.7 0
1 0.7 0
1.5 0.7 0
2 0.7 0
2.5 0.7 0
3 0.7 0
3.5 0.7 0
4 0.7 0
4.5 0.7 0
5 0.7 0
0 0.75 0
0.5 0.75 0
1 0.75 0
1.5 0.75 0
2 0.75 0
2.5 0.75 0
3 0.75 0
3.5 0.75 0
4 0.75 0
4.5 0.75 0
5 0.75 0
0 0.8 0
0.5 0.8 0
1 0.8 0
1.5 0.8 0
2 0.8 0
2.5 0.8 0
3 0.8 0
3.5 0.8 0
4 0.8 0
4.5 0.8 0
5 0.8 0
0 0.85 0
0.5 0.85 0
1 0.85 0
1.5 0.85 0
2 0.85 0
2.5 0.85 0
3 0.85 0
3.5 0.85 0
4 0.85 0
4.5 0.85 0
5 0.85 0
0 0.9 0
0.5 0.9 0
1 0.9 0
1.5 0.9 0
2 0.9 0
2.5 0.9 0
3 0.9 0
3.5 0.9 0
4 0.9 0
4.5 0.9 0
5 0.9 0
0 0.95 0
0.5 0.95 0
1 0.95 0
1.5 0.95 0
2 0.95 0
2.5 0.95 0
3 0.95 0
3.5 0.95 0
4 0.95 0
4.5 0.95 0
5 0.95 0
0 1 0
0.5 1 0
1 1 0
1.5 1 0
2 1 0
2.5 1 0
3 1 0
3.5 1 0
4 1 0
4.5 1 0
5 1 0
0 0 0.1
0.5 0 0.1
1 0 0.1
1.5 0 0.1
2 0 0.1
2.5 0 0.1
3 0 0.1
3.5 0 0.1
4 0 0.1
4.5 0 0.1
5 0 0.1
0 0.05 0.1
0.5 0.05 0.1
1 0.05 0.1
1.5 0.05 0.1
2 0.05 0.1
2.5 0.05 0.1
3 0.05 0.1
3.5 0.05 0.1
4 0.05 0.1
4.5 0.05 0.1
5 0.05 0.1
0 0.1 0.1
0.5 0.1 0.1
1 0.1 0.1
1.5 0.1 0.1
2 0.1 0.1
2.5 0.1 0.1
3 0.1 0.1
3.5 0.1 0.1
4 0.1 0.1
4.5 0.1 0.1
5 0.1 0.1
0 0.15 0.1
0.5 0.15 0.1
1 0.15 0.1
1.5 0.15 0.1
2 0.15 0.1
2.5 0.15 0.1
3 0.15 0.1
3.5 0.15 0.1
4 0.15 0.1
4.5 0.15 0.1
5 0.15 0.1
0 0.2 0.1
0.5 0.2 0.1
1 0.2 0.1
1.5 0.2 0.1
2 0.2 0.1
2.5 0.2 0.1
3 0.2 0.1
3.5 0.2 0.1
4 0.2 0.1
4.5 0.2 0.1
5 0.2 0.1
0 0.25 0.1
0.5 0.25 0.1
1 0.25 0.1
1.5 0.25 0.1
2 0.25 0.1
2.5 0.25 0.1
3 0.25 0.1
3.5 0.25 0.1
4 0.25 0.1
4.5 0.25 0.1
5 0.25 0.1
0 0.3 0.1
0.5 0.3 0.1
1 0.3 0.1
1.5 0.3 0.1
2 0.3 0.1
2.5 0.3 0.1
3 0.3 0.1
3.5 0.3 0.1
4 0.3 0.1
4.5 0.3 0.1
5 0.3 0.1
0 0.35 0.1
0.5 0.35 0.1
1 0.35 0.1
1.5 0.35 0.1
2 0.35 0.1
2.5 0.35 0.1
3 0.35 0.1
3.5 0.35 0.1
4 0.35 0.1
4.5 0.35 0.1
5 0.35 0.1
0 0.4 0.1
0.5 0.4 0.1
1 0.4 0.1
1.5 0.4 0.1
2 0.4 0.1
2.5 0.4 0.1
3 0.4 0.1
3.5 0.4 0.1
4 0.4 0.1
4.5 0.4 0.1
5 0.4 0.1
0 0.45 0.1
0.5 0.45 0.1
1 0.45 0.1
1.5 0.45 0.1
2 0.45 0.1
2.5 0.45 0.1
3 0.45 0.1
3.5 0.45 0.1
4 0.45 0.1
4.5 0.45 0.1
5 0.45 0.1
0 0.5 0.1
0.5 0.5 0.1
1 0.5 0.1
1.5 0.5 0.1
2 0.5 0.1
2.5 0.5 0.1
3 0.5 0.1
3.5 0.5 0.1
4 0.5 0.1
4.5 0.5 0.1
5 0.5 0.1
0 0.55 0.1
0.5 0.55 0.1
1 0.55 0.1
1.5 0.55 0.1
2 0.55 0.1
2.5 0.55 0.1
3 0.55 0.1
3.5 0.55 0.1
4 0.55 0.1
4.5 0.55 0.1
5 0.55 0.1
0 0.6 0.1
0.5 0.6 0.1
1 0.6 0.1
1.5 0.6 0.1
2 0.6 0.1
2.5 0.6 0.1
3 0.6 0.1
3.5 0.6 0.1
4 0.6 0.1
4.5 0.6 0.1
5 0.6 0.1
0 0.65 0.1
0.5 0.65 0.1
1 0.65 0.1
1.5 0.65 0.1
2 0.65 0.1
2.5 0.65 0.1
3 0.65 0.1
3.5 0.65 0.1
4 0.65 0.1
4.5 0.65 0.1
5 0.65 0.1
0 0.7 0.1
0.5 0.7 0.1
1 0.7 0.1
1.5 0.7 0.1
2 0.7 0.1
2.5 0.7 0.1
3 0.7 0.1
3.5 0.7 0.1
4 0.7 0.1
4.5 0.7 0.1
5 0.7 0.1
0 0.75 0.1
0.5 0.75 0.1
1 0.75 0.1
1.5 0.75 0.1
2 0.75 0.1
2.5 0.75 0.1
3 0.75 0.1
3.5 0.75 0.1
4 0.75 0.1
4.5 0.75 0.1
5 0.75 0.1
0 0.8 0.1
0.5 0.8 0.1
1 0.8 0.1
1.5 0.8 0.1
2 0.8 0.1
2.5 0.8 0.1
3 0.8 0.1
3.5 0.8 0.1
4 0.8 0.1
4.5 0.8 0.1
5 0.8 0.1
0 0.85 0.1
0.5 0.85 0.1
1 0.85 0.1
1.5 0.85 0.1
2 0.85 0.1
2.5 0.85 0.1
3 0.85 0.1
3.5 0.85 0.1
4 0.85 0.1
4.5 0.85 0.1
5 0.85 0.1
0 0.9 0.1
0.5 0.9 0.1
1 0.9 0.1
1.5 0.9 0.1
2 0.9 0.1
2.5 0.9 0.1
3 0.9 0.1
3.5 0.9 0.1
4 0.9 0.1
4.5 0.9 0.1
5 0.9 0.1
0 0.95 0.1
0.5 0.95 0.1
1 0.95 0.1
1.5 0.95 0.1
2 0.95 0.1
2.5 0.95 0.1
3 0.95 0.1
3.5 0.95 0.1
4 0.95 0.1
4.5 0.95 0.1
5 0.95 0.1
0 1 0.1
0.5 1 0.1
1 1 0.1
1.5 1 0.1
2 1 0.1
2.5 1 0.1
3 1 0.1
3.5 1 0.1
4 1 0.1
4.5 1 0.1
5 1 0.1
0 0 0.2
0.5 0 0.2
1 0 0.2
1.5 0 0.2
2 0 0.2
2.5 0 0.2
3 0 0.2
3.5 0 0.2
4 0 0.2
4.5 0 0.2
5 0 0.2
0 0.05 0.2
0.5 0.05 0.2
1 0.05 0.2
1.5 0.05 0.2
2 0.05 0.2
2.5 0.05 0.2
3 0.05 0.2
3.5 0.05 0.2
4 0.05 0.2
4.5 0.05 0.2
5 0.05 0.2
0 0.1 0.2
0.5 0.1 0.2
1 0.1 0.2
1.5 0.1 0.2
2 0.1 0.2
2.5 0.1 0.2
3 0.1 0.2
3.5 0.1 0.2
4 0.1 0.2
4.5 0.1 0.2
5 0.1 0.2
0 0.15 0.2
0.5 0.15 0.2
1 0.15 0.2
1.5 0.15 0.2
2 0.15 0.2
2.5 0.15 0.2
3 0.15 0.2
3.5 0.15 0.2
4 0.15 0.2
4.5 0.15 0.2
5 0.15 0.2
0 0.2 0.2
0.5 0.2 0.2
1 0.2 0.2
1.5 0.2 0.2
2 0.2 0.2
2.5 0.2 0.2
3 0.2 0.2
3.5 0.2 0.2
4 0.2 0.2
4.5 0.2 0.2
5 0.2 0.2
0 0.25 0.2
0.5 0.25 0.2
1 0.25 0.2
1.5 0.25 0.2
2 0.25 0.2
2.5 0.25 0.2
3 0.25 0.2
3.5 0.25 0.2
4 0.25 0.2
4.5 0.25 0.2
5 0.25 0.2
0 0.3 0.2
0.5 0.3 0.2
1 0.3 0.2
1.5 0.3 0.2
2 0.3 0.2
2.5 0.3 0.2
3 0.3 0.2
3.5 0.3 0.2
4 0.3 0.2
4.5 0.3 0.2
5 0.3 0.2
0 0.35 0.2
0.5 0.35 0.2
1 0.35 0.2
1.5 0.35 0.2
2 0.35 0.2
2.5 0.35 0.2
3 0.35 0.2
3.5 0.35 0.2
4 0.35 0.2
4.5 0.35 0.2
5 0.35 0.2
0 0.4 0.2
0.5 0.4 0.2
1 0.4 0.2
1.5 0.4 0.2
2 0.4 0.2
2.5 0.4 0.2
3 0.4 0.2
3.5 0.4 0.2
4 0.4 0.2
4.5 0.4 0.2
5 0.4 0.2
0 0.45 0.2
0.5 0.45 0.2
1 0.45 0.2
1.5 0.45 0.2
2 0.45 0.2
2.5 0.45 0.2
3 0.45 0.2
3.5 0.45 0.2
4 0.45 0.2
4.5 0.45 0.2
5 0.45 0.2
0 0.5 0.2
0.5 0.5 0.2
1 0.5 0.2
1.5 0.5 0.2
2 0.5 0.2
2.5 0.5 0.2
3 0.5 0.2
3.5 0.5 0.2
4 0.5 0.2
4.5 0.5 0.2
5 0.5 0.2
0 0.55 0.2
0.5 0.55 0.2
1 0.55 0.2
1.5 0.55 0.2
2 0.55 0.2
2.5 0.55 0.2
3 0.55 0.2
3.5 0.55 0.2
4 0.55 0.2
4.5 0.55 0.2
5 0.55 0.2
0 0.6 0.2
0.5 0.6 0.2
1 0.6 0.2
1.5 0.6 0.2
2 0.6 0.2
2.5 0.6 0.2
3 0.6 0.2
3.5 0.6 0.2
4 0.6 0.2
4.5 0.6 0.2
5 0.6 0.2
0 0.65 0.2
0.5 0.65 0.2
1 0.65 0.2
1.5 0.65 0.2
2 0.65 0.2
2.5 0.65 0.2
3 0.65 0.2
3.5 0.65 0.2
4 0.65 0.2
4.5 0.65 0.2
5 0.65 0.2
0 0.7 0.2
0.5 0.7 0.2
1 0.7 0.2
1.5 0.7 0.2
2 0.7 0.2
2.5 0.7 0.2
3 0.7 0.2
3.5 0.7 0.2
4 0.7 0.2
4.5 0.7 0.2
5 0.7 0.2
0 0.75 0.2
0.5 0.75 0.2
1 0.75 0.2
1.5 0.75 0.2
2 0.75 0.2
2.5 0.75 0.2
3 0.75 0.2
3.5 0.75 0.2
4 0.75 0.2
4.5 0.75 0.2
5 0.75 0.2
0 0.8 0.2
0.5 0.8 0.2
1 0.8 0.2
1.5 0.8 0.2
2 0.8 0.2
2.5 0.8 0.2
3 0.8 0.2
3.5 0.8 0.2
4 0.8 0.2
4.5 0.8 0.2
5 0.8 0.2
0 0.85 0.2
0.5 0.85 0.2
1 0.85 0.2
1.5 0.85 0.2
2 0.85 0.2
2.5 0.85 0.2
3 0.85 0.2
3.5 0.85 0.2
4 0.85 0.2
4.5 0.85 0.2
5 0.85 0.2
0 0.9 0.2
0.5 0.9 0.2
1 0.9 0.2
1.5 0.9 0.2
2 0.9 0.2
2.5 0.9 0.2
3 0.9 0.2
3.5 0.9 0.2
4 0.9 0.2
4.5 0.9 0.2
5 0.9 0.2
0 0.95 0.2
0.5 0.95 0.2
1 0.95 0.2
1.5 0.95 0.2
2 0.95 0.2
2.5 0.95 0.2
3 0.95 0.2
3.5 0.95 0.2
4 0.95 0.2
4.5 0.95 0.2
5 0.95 0.2
0 1 0.2
0.5 1 0.2
1 1 0.2
1.5 1 0.2
2 1 0.2
2.5 1 0.2
3 1 0.2
3.5 1 0.2
4 1 0.2
4.5 1 0.2
5 1 0.2
0 0 0.3
0.5 0 0.3
1 0 0.3
1.5 0 0.3
2 0 0.3
2.5 0 0.3
3 0 0.3
3.5 0 0.3
4 0 0.3
4.5 0 0.3
5 0 0.3
0 0.05 0.3
0.5 0.05 0.3
1 0.05 0.3
1.5 0.05 0.3
2 0.05 0.3
2.5 0.05 0.3
3 0.05 0.3
3.5 0.05 0.3
4 0.05 0.3
4.5 0.05 0.3
5 0.05 0.3
0 0.1 0.3
0.5 0.1 0.3
1 0.1 0.3
1.5 0.1 0.3
2 0.1 0.3
2.5 0.1 0.3
3 0.1 0.3
3.5 0.1 0.3
4 0.1 0.3
4.5 0.1 0.3
5 0.1 0.3
0 0.15 0.3
0.5 0.15 0.3
1 0.15 0.3
1.5 0.15 0.3
2 0.15 0.3
2.5 0.15 0.3
3 0.15 0.3
3.5 0.15 0.3
4 0.15 0.3
4.5 0.15 0.3
5 0.15 0.3
0 0.2 0.3
0.5 0.2 0.3
1 0.2 0.3
1.5 0.2 0.3
2 0.2 0.3
2.5 0.2 0.3
3 0.2 0.3
3.5 0.2 0.3
4 0.2 0.3
4.5 0.2 0.3
5 0.2 0.3
0 0.25 0.3
0.5 0.25 0.3
1 0.25 0.3
1.5 0.25 0.3
2 0.25 0.3
2.5 0.25 0.3
3 0.25 0.3
3.5 0.25 0.3
4 0.25 0.3
4.5 0.25 0.3
5 0.25 0.3
0 0.3 0.3
0.5 0.3 0.3
1 0.3 0.3
1.5 0.3 0.3
2 0.3 0.3
2.5 0.3 0.3
3 0.3 0.3
3.5 0.3 0.3
4 0.3 0.3
4.5 0.3 0.3
5 0.3 0.3
0 0.35 0.3
0.5 0.35 0.3
1 0.35 0.3
1.5 0.35 0.3
2 0.35 0.3
2.5 0.35 0.3
3 0.35 0.3
3.5 0.35 0.3
4 0.35 0.3
4.5 0.35 0.3
5 0.35 0.3
0 0.4 0.3
0.5 0.4 0.3
1 0.4 0.3
1.5 0.4 0.3
2 0.4 0.3
2.5 0.4 0.3
3 0.4 0.3
3.5 0.4 0.3
4 0.4 0.3
4.5 0.4 0.3
5 0.4 0.3
0 0.45 0.3
0.5 0.45 0.3
1 0.45 0.3
1.5 0.45 0.3
2 0.45 0.3
2.5 0.45 0.3
3 0.45 0.3
3.5 0.45 0.3
4 0.45 0.3
4.5 0.45 0.3
5 0.45 0.3
0 0.5 0.3
0.5 0.5 0.3
1 0.5 0.3
1.5 0.5 0.3
2 0.5 0.3
2.5 0.5 0.3
3 0.5 0.3
3.5 0.5 0.3
4 0.5 0.3
4.5 0.5 0.3
5 0.5 0.3
0 0.55 0.3
0.5 0.55 0.3
1 0.55 0.3
1.5 0.55 0.3
2 0.55 0.3
2.5 0.55 0.3
3 0.55 0.3
3.5 0.55 0.3
4 0.55 0.3
4.5 0.55 0.3
5 0.55 0.3
0 0.6 0.3
0.5 0.6 0.3
1 0.6 0.3
1.5 0.6 0.3
2 0.6 0.3
2.5 0.6 0.3
3 0.6 0.3
3.5 0.6 0.3
4 0.6 0.3
4.5 0.6 0.3
5 0.6 0.3
0 0.65 0.3
0.5 0.65 0.3
1 0.65 0.3
1.5 0.65 0.3
2 0.65 0.3
2.5 0.65 0.3
3 0.65 0.3
3.5 0.65 0.3
4 0.65 0.3
4.5 0.65 0.3
5 0.65 0.3
0 0.7 0.3
0.5 0.7 0.3
1 0.7 0.3
1.5 0.7 0.3
2 0.7 0.3
2.5 0.7 0.3
3 0.7 0.3
3.5 0.7 0.3
4 0.7 0.3
4.5 0.7 0.3
5 0.7 0.3
0 0.75 0.3
0.5 0.75 0.3
1 0.75 0.3
1.5 0.75 0.3
2 0.75 0.3
2.5 0.75 0.3
3 0.75 0.3
3.5 0.75 0.3
4 0.75 0.3
4.5 0.75 0.3
5 0.75 0.3
0 0.8 0.3
0.5 0.8 0.3
1 0.8 0.3
1.5 0.8 0.3
2 0.8 0.3
2.5 0.8 0.3
3 0.8 0.3
3.5 0.8 0.3
4 0.8 0.3
4.5 0.8 0.3
5 0.8 0.3
0 0.85 0.3
0.5 0.85 0.3
1 0.85 0.3
1.5 0.85 0.3
2 0.85 0.3
2.5 0.85 0.3
3 0.85 0.3
3.5 0.85 0.3
4 0.85 0.3
4.5 0.85 0.3
5 0.85 0.3
0 0.9 0.3
0.5 0.9 0.3
1 0.9 0.3
1.5 0.9 0.3
2 0.9 0.3
2.5 0.9 0.3
3 0.9 0.3
3.5 0.9 0.3
4 0.9 0.3
4.5 0.9 0.3
5 0.9 0.3
0 0.95 0.3
0.5 0.95 0.3
1 0.95 0.3
1.5 0.95 0.3
2 0.95 0.3
2.5 0.95 0.3
3 0.95 0.3
3.5 0.95 0.3
4 0.95 0.3
4.5 0.95 0.3
5 0.95 0.3
0 1 0.3
0.5 1 0.3
1 1 0.3
1.5 1 0.3
2 1 0.3
2.5 1 0.3
3 1 0.3
3.5 1 0.3
4 1 0.3
4.5 1 0.3
5 1 0.3
0 0 0.4
[...]
CELL_DATA 2000
SCALARS pressure float 1
LOOKUP_TABLE default
0
0
0.88325
1.02787
0.848734
0.684653
0.523072
0.362119
0.200489
0.0244248
0
0
0.883665
1.01981
0.848095
0.684533
0.523044
0.362116
0.200537
0.0272874
0
0
0.844508
1.01524
0.847268
0.684384
0.523009
0.362114
0.200643
0.0298108
0
0
0.838649
1.00466
0.846341
0.684214
0.522968
0.362113
0.200779
0.0319028
1.8678
2.02719
0.85511
0.995748
0.845372
0.684032
0.522923
0.362113
0.200925
0.0336048
1.86221
2.00707
0.89775
0.990034
0.844468
0.683844
0.522874
0.362111
0.201066
0.0349594
1.8517
1.97999
0.94751
0.987294
0.843699
0.683657
0.522823
0.362108
0.201189
0.036002
1.83725
1.95123
0.997618
0.986776
0.843094
0.683476
0.52277
0.362102
0.201287
0.0367601
1.82194
1.92346
1.04395
0.98787
0.842659
0.683306
0.522716
0.362092
0.201354
0.0372541
1.80796
1.89797
1.08543
0.990063
0.842376
0.683147
0.522661
0.362079
0.201386
0.0374973
1.79625
1.87528
1.12175
0.992934
0.842222
0.683001
0.522608
0.362062
0.201382
0.0374963
1.78745
1.85548
1.153
0.996143
0.842164
0.682868
0.522555
0.362042
0.20134
0.0372513
1.7822
1.8385
1.17945
0.999414
0.842171
0.682746
0.522505
0.362019
0.201264
0.0367556
1.78065
1.82421
1.20142
1.00253
0.842211
0.682633
0.522456
0.361994
0.201157
0.0359958
1.78255
1.81249
1.21927
1.00532
0.842253
0.682527
0.52241
0.361968
0.201025
0.0349516
1.78758
1.80324
1.23332
1.00764
0.842272
0.682427
0.522367
0.361942
0.200877
0.0335954
1.79514
1.79643
1.24385
1.0094
0.842245
0.682331
0.522328
0.361918
0.200724
0.0318921
1.80335
1.79197
1.25113
1.01052
0.842155
0.682237
0.522292
0.361897
0.200582
0.0297989
1.80948
1.78986
1.25536
1.01096
0.841993
0.682147
0.522262
0.361881
0.200472
0.0272745
1.81279
1.78981
1.25654
1.01071
0.841769
0.682064
0.522237
0.361871
0.20042
0.0244112
0
0
0.888307
1.02346
0.848352
0.684568
0.523053
0.362131
0.200713
0.0292714
0
0
0.887586
1.01664
0.847599
0.684429
0.523022
0.362127
0.200774
0.0328145
0
0
0.846322
1.01254
0.846818
0.684281
0.522987
0.362126
0.200896
0.0354499
0
0
0.867691
1.00435
0.845917
0.684118
0.522948
0.362126
0.201042
0.0375956
1.85069
2.07781
0.787222
0.99329
0.844984
0.683946
0.522905
0.362126
0.201193
0.0393304
1.84421
2.06167
0.838699
0.985791
0.844122
0.683771
0.522859
0.362126
0.201338
0.0407056
1.83399
2.01464
0.909528
0.984043
0.84342
0.683599
0.522811
0.362124
0.201464
0.041761
1.82111
1.97391
0.973572
0.984666
0.842894
0.683435
0.522762
0.362118
0.201563
0.0425271
1.80634
1.9392
1.02911
0.986577
0.842538
0.683281
0.522711
0.36211
0.201631
0.0430257
1.79126
1.9097
1.07643
0.98935
0.842329
0.683139
0.522661
0.362098
0.201664
0.0432711
1.77859
1.88445
1.11649
0.992636
0.84224
0.683009
0.522612
0.362082
0.201659
0.0432702
1.76935
1.86286
1.15017
0.996143
0.842239
0.682891
0.522563
0.362063
0.201618
0.0430231
1.76395
1.84445
1.1782
0.999629
0.842295
0.682782
0.522516
0.362041
0.201541
0.0425228
1.76256
1.82884
1.20117
1.0029
0.842375
0.682682
0.52247
0.362016
0.201433
0.0417552
1.76516
1.81579
1.21962
1.00579
0.842452
0.682587
0.522427
0.36199
0.201299
0.0406982
1.77104
1.80505
1.23398
1.00819
0.842498
0.682496
0.522387
0.361965
0.201147
0.0393217
1.77784
1.79666
1.24462
1.01
0.842492
0.682406
0.522349
0.361941
0.200989
0.0375855
1.78433
1.79083
1.25185
1.01115
0.842417
0.682318
0.522315
0.36192
0.200838
0.0354388
1.79013
1.7877
1.25589
1.01158
0.842259
0.682229
0.522285
0.361903
0.200711
0.0328023
1.79461
1.78778
1.25687
1.01122
0.841991
0.682132
0.522257
0.361892
0.200646
0.0292583
0
0
0.894611
1.02106
0.84811
0.684504
0.523039
0.362154
0.201028
0.032738
0
0
0.891924
1.0153
0.84737
0.684364
0.523007
0.36215
0.201096
0.0363833
0
0
0.858629
1.01235
0.846638
0.684219
0.522973
0.36215
0.201225
0.039087
0
0
0.880943
1.00594
0.845806
0.684063
0.522935
0.36215
0.201377
0.0412805
1.83436
2.09373
0.756322
0.994668
0.844911
0.683898
0.522894
0.362152
0.201533
0.0430483
1.82691
2.11563
0.768438
0.984262
0.844029
0.683731
0.52285
0.362152
0.201681
0.044446
1.81866
2.06492
0.860776
0.980417
0.84328
0.683567
0.522804
0.362151
0.20181
0.0455166
1.81341
2.01111
0.943045
0.981427
0.84274
0.683411
0.522757
0.362147
0.201912
0.0462926
1.80943
1.9671
1.00929
0.984105
0.842402
0.683266
0.52271
0.362139
0.201981
0.0467972
1.80456
1.93099
1.06375
0.987527
0.842227
0.683133
0.522662
0.362128
0.202014
0.0470454
1.79825
1.90128
1.10868
0.991333
0.842175
0.683013
0.522616
0.362113
0.20201
0.0470446
1.79141
1.87658
1.1457
0.995253
0.842213
0.682904
0.52257
0.362094
0.201968
0.0467948
1.78581
1.85584
1.17602
0.999065
0.842307
0.682805
0.522525
0.362072
0.20189
0.0462886
1.7816
1.83841
1.20055
1.00259
0.842422
0.682713
0.522482
0.362048
0.20178
0.0455111
1.77727
1.82383
1.22
1.00568
0.842529
0.682626
0.522441
0.362022
0.201644
0.044439
1.77233
1.81176
1.23489
1.00824
0.842602
0.682541
0.522402
0.361997
0.201489
0.04304
1.76786
1.80178
1.24564
1.01018
0.842622
0.682457
0.522366
0.361973
0.201326
0.0412709
1.7666
1.79406
1.25273
1.01142
0.842568
0.682373
0.522333
0.361951
0.201168
0.0390763
1.7707
1.78945
1.25661
1.01189
0.842418
0.682285
0.522303
0.361934
0.201035
0.0363716
1.77671
1.78883
1.25745
1.01153
0.842147
0.682187
0.522274
0.361923
0.200963
0.0327255
0
0
0.895075
1.0204
0.847994
0.684464
0.52303
0.362177
0.201298
0.0348977
0
0
0.891602
1.01495
0.847269
0.684325
0.522999
0.362173
0.201367
0.0385647
0
0
0.856841
1.01251
0.84657
0.684183
0.522965
0.362173
0.201499
0.0412936
0
0
0.872625
1.00679
0.845786
0.684032
0.522928
0.362175
0.201654
0.0435097
1.82646
2.1209
0.743993
0.995875
0.844941
0.683874
0.522888
0.362177
0.201814
0.045296
1.8189
2.1488
0.737392
0.985049
0.844092
0.683713
0.522846
0.362178
0.201964
0.0467079
1.81298
2.10011
0.823632
0.979959
0.843318
0.683554
0.522801
0.362177
0.202095
0.047789
1.8144
2.041
0.916551
0.980059
0.842715
0.6834
0.522756
0.362173
0.202198
0.0485723
1.82285
1.99109
0.992068
0.982508
0.842329
0.683258
0.52271
0.362166
0.202268
0.0490815
1.83333
1.94952
1.05258
0.985975
0.842131
0.683128
0.522664
0.362155
0.202302
0.0493319
1.83992
1.91424
1.10171
0.989933
0.842073
0.683011
0.522619
0.362141
0.202298
0.0493311
1.84
1.88489
1.14184
0.994053
0.842117
0.682906
0.522575
0.362122
0.202255
0.0490791
1.83427
1.86164
1.17447
0.998081
0.842223
0.682811
0.522531
0.362101
0.202177
0.0485684
1.82273
1.84385
1.20052
1.00184
0.84236
0.682724
0.52249
0.362077
0.202066
0.0477837
1.80494
1.82974
1.22068
1.0052
0.842502
0.682643
0.52245
0.362051
0.201927
0.0467012
1.78403
1.81753
1.23571
1.008
0.842616
0.682565
0.522413
0.362026
0.20177
0.0452879
1.76671
1.80677
1.24643
1.01011
0.842668
0.682486
0.522378
0.362002
0.201604
0.0435004
1.75869
1.79801
1.25345
1.01146
0.842634
0.682405
0.522345
0.36198
0.201444
0.0412832
1.76069
1.79235
1.25723
1.01199
0.842496
0.682318
0.522315
0.361963
0.201307
0.0385534
1.7671
1.79116
1.25799
1.01165
0.84223
0.682222
0.522287
0.361951
0.201234
0.0348855
0
0
0.893483
1.02022
0.847952
0.684445
0.523026
0.362191
0.201449
0.0359277
0
0
0.889232
1.01487
0.847234
0.684307
0.522995
0.362188
0.201518
0.0396002
0
0
0.852673
1.0126
0.846551
0.684167
0.522962
0.362188
0.201651
0.0423373
0
0
0.86612
1.00709
0.845788
0.684018
0.522925
0.362189
0.201807
0.0445619
1.82378
2.13633
0.735778
0.996345
0.844968
0.683863
0.522885
0.362192
0.201968
0.0463559
1.81633
2.16537
0.727554
0.985566
0.844142
0.683706
0.522844
0.362193
0.20212
0.0477743
1.81244
2.11693
0.809661
0.980445
0.843389
0.683551
0.5228
0.362192
0.202252
0.0488604
1.81868
2.05672
0.901775
0.980394
0.842789
0.683401
0.522756
0.362189
0.202356
0.0496472
1.83425
2.00439
0.980426
0.98244
0.842366
0.683259
0.522711
0.362182
0.202426
0.0501587
1.85378
1.95953
1.04531
0.985415
0.842105
0.683127
0.522665
0.362172
0.202461
0.0504103
1.86985
1.92068
1.09802
0.989033
0.841993
0.683008
0.522621
0.362157
0.202456
0.0504095
1.87564
1.88798
1.14046
0.993058
0.842007
0.682902
0.522577
0.362139
0.202414
0.0501564
1.86978
1.86323
1.17427
0.997229
0.842122
0.682809
0.522534
0.362118
0.202335
0.0496434
1.85228
1.84583
1.20072
1.00125
0.842292
0.682726
0.522494
0.362094
0.202223
0.0488551
1.82472
1.83241
1.22101
1.00483
0.842467
0.682649
0.522455
0.362068
0.202084
0.0477676
1.79446
1.82064
1.23612
1.00779
0.842606
0.682575
0.522418
0.362043
0.201925
0.046348
1.76978
1.80981
1.24685
1.01002
0.842677
0.682499
0.522383
0.362019
0.201758
0.0445528
1.7569
1.8006
1.25384
1.01144
0.842656
0.682419
0.522351
0.361997
0.201597
0.042327
1.75696
1.79439
1.25759
1.012
0.842526
0.682334
0.522321
0.36198
0.201459
0.039589
1.76342
1.7929
1.2583
1.01167
0.842263
0.682238
0.522293
0.361968
0.201385
0.0359156
0
0
0.893483
1.02022
0.847952
0.684445
0.523026
0.362191
0.201449
0.0359277
0
0
0.889232
1.01487
0.847234
0.684307
0.522995
0.362188
0.201518
0.0396002
0
0
0.852673
1.0126
0.846551
0.684167
0.522962
0.362188
0.201651
0.0423373
0
0
0.86612
1.00709
0.845788
0.684018
0.522925
0.362189
0.201807
0.0445619
1.82378
2.13633
0.735778
0.996345
0.844968
0.683863
0.522885
0.362192
0.201968
0.0463559
1.81633
2.16537
0.727554
0.985566
0.844142
0.683706
0.522844
0.362193
0.20212
0.0477743
1.81244
2.11693
0.809661
0.980445
0.843389
0.683551
0.5228
0.362192
0.202252
0.0488604
1.81868
2.05672
0.901775
0.980394
0.842789
0.683401
0.522756
0.362189
0.202356
0.0496472
1.83425
2.00439
0.980426
0.98244
0.842366
0.683259
0.522711
0.362182
0.202426
0.0501587
1.85378
1.95953
1.04531
0.985415
0.842105
0.683127
0.522665
0.362172
0.202461
0.0504103
1.86985
1.92068
1.09802
0.989033
0.841993
0.683008
0.522621
0.362157
0.202456
0.0504095
1.87564
1.88798
1.14046
0.993058
0.842007
0.682902
0.522577
0.362139
0.202414
0.0501564
1.86978
1.86323
1.17427
0.997229
0.842122
0.682809
0.522534
0.362118
0.202335
0.0496434
1.85228
1.84583
1.20072
1.00125
0.842292
0.682726
0.522494
0.362094
0.202223
0.0488551
1.82472
1.83241
1.22101
1.00483
0.842467
0.682649
0.522455
0.362068
0.202084
0.0477676
1.79446
1.82064
1.23612
1.00779
0.842606
0.682575
0.522418
0.362043
0.201925
0.046348
1.76978
1.80981
1.24685
1.01002
0.842677
0.682499
0.522383
0.362019
0.201758
0.0445528
1.7569
1.8006
1.25384
1.01144
0.842656
0.682419
0.522351
0.361997
0.201597
0.042327
1.75696
1.79439
1.25759
1.012
0.842526
0.682334
0.522321
0.36198
0.201459
0.039589
1.76342
1.7929
1.2583
1.01167
0.842263
0.682238
0.522293
0.361968
0.201385
0.0359156
0
0
0.895075
1.0204
0.847994
0.684464
0.52303
0.362177
0.201298
0.0348977
0
0
0.891602
1.01495
0.847269
0.684325
0.522999
0.362173
0.201367
0.0385647
0
0
0.856841
1.01251
0.84657
0.684183
0.522965
0.362173
0.201499
0.0412936
0
0
0.872625
1.00679
0.845786
0.684032
0.522928
0.362175
0.201654
0.0435097
1.82646
2.1209
0.743993
0.995875
0.844941
0.683874
0.522888
0.362177
0.201814
0.045296
1.8189
2.1488
0.737392
0.985049
0.844092
0.683713
0.522846
0.362178
0.201964
0.0467079
1.81298
2.10011
0.823632
0.979959
0.843318
0.683554
0.522801
0.362177
0.202095
0.047789
1.8144
2.041
0.916551
0.980059
0.842715
0.6834
0.522756
0.362173
0.202198
0.0485723
1.82285
1.99109
0.992068
0.982508
0.842329
0.683258
0.52271
0.362166
0.202268
0.0490815
1.83333
1.94952
1.05258
0.985975
0.842131
0.683128
0.522664
0.362155
0.202302
0.0493319
1.83992
1.91424
1.10171
0.989933
0.842073
0.683011
0.522619
0.362141
0.202298
0.0493311
1.84
1.88489
1.14184
0.994053
0.842117
0.682906
0.522575
0.362122
0.202255
0.0490791
1.83427
1.86164
1.17447
0.998081
0.842223
0.682811
0.522531
0.362101
0.202177
0.0485684
1.82273
1.84385
1.20052
1.00184
0.84236
0.682724
0.52249
0.362077
0.202066
0.0477837
1.80494
1.82974
1.22068
1.0052
0.842502
0.682643
0.52245
0.362051
0.201927
0.0467012
1.78403
1.81753
1.23571
1.008
0.842616
0.682565
0.522413
0.362026
0.20177
0.0452879
1.76671
1.80677
1.24643
1.01011
0.842668
0.682486
0.522378
0.362002
0.201604
0.0435004
1.75869
1.79801
1.25345
1.01146
0.842634
0.682405
0.522345
0.36198
0.201444
0.0412832
1.76069
1.79235
1.25723
1.01199
0.842496
0.682318
0.522315
0.361963
0.201307
0.0385534
1.7671
1.79116
1.25799
1.01165
0.84223
0.682222
0.522287
0.361951
0.201234
0.0348855
0
0
0.894611
1.02106
0.84811
0.684504
0.523039
0.362154
0.201028
0.032738
0
0
0.891924
1.0153
0.84737
0.684364
0.523007
0.36215
0.201096
0.0363833
0
0
0.858629
1.01235
0.846638
0.684219
0.522973
0.36215
0.201225
0.039087
0
0
0.880943
1.00594
0.845806
0.684063
0.522935
0.36215
0.201377
0.0412805
1.83436
2.09373
0.756322
0.994668
0.844911
0.683898
0.522894
0.362152
0.201533
0.0430483
1.82691
2.11563
0.768438
0.984262
0.844029
0.683731
0.52285
0.362152
0.201681
0.044446
1.81866
2.06492
0.860776
0.980417
0.84328
0.683567
0.522804
0.362151
0.20181
0.0455166
1.81341
2.01111
0.943045
0.981427
0.84274
0.683411
0.522757
0.362147
0.201912
0.0462926
1.80943
1.9671
1.00929
0.984105
0.842402
0.683266
0.52271
0.362139
0.201981
0.0467972
1.80456
1.93099
1.06375
0.987527
0.842227
0.683133
0.522662
0.362128
0.202014
0.0470454
1.79825
1.90128
1.10868
0.991333
0.842175
0.683013
0.522616
0.362113
0.20201
0.0470446
1.79141
1.87658
1.1457
0.995253
0.842213
0.682904
0.52257
0.362094
0.201968
0.0467948
1.78581
1.85584
1.17602
0.999065
0.842307
0.682805
0.522525
0.362072
0.20189
0.0462886
1.7816
1.83841
1.20055
1.00259
0.842422
0.682713
0.522482
0.362048
0.20178
0.0455111
1.77727
1.82383
1.22
1.00568
0.842529
0.682626
0.522441
0.362022
0.201644
0.044439
1.77233
1.81176
1.23489
1.00824
0.842602
0.682541
0.522402
0.361997
0.201489
0.04304
1.76786
1.80178
1.24564
1.01018
0.842622
0.682457
0.522366
0.361973
0.201326
0.0412709
1.7666
1.79406
1.25273
1.01142
0.842568
0.682373
0.522333
0.361951
0.201168
0.0390763
1.7707
1.78945
1.25661
1.01189
0.842418
0.682285
0.522303
0.361934
0.201035
0.0363716
1.77671
1.78883
1.25745
1.01153
0.842147
0.682187
0.522274
0.361923
0.200963
0.0327255
0
0
0.888307
1.02346
0.848352
0.684568
0.523053
0.362131
0.200713
0.0292714
0
0
0.887586
1.01664
0.847599
0.684429
0.523022
0.362127
0.200774
0.0328145
0
0
0.846322
1.01254
0.846818
0.684281
0.522987
0.362126
0.200896
0.0354499
0
0
0.867691
1.00435
0.845917
0.684118
0.522948
0.362126
0.201042
0.0375956
1.85069
2.07781
0.787222
0.99329
0.844984
0.683946
0.522905
0.362126
0.201193
0.0393304
1.84421
2.06167
0.838699
0.985791
0.844122
0.683771
0.522859
0.362126
0.201338
0.0407056
1.83399
2.01464
0.909528
0.984043
0.84342
0.683599
0.522811
0.362124
0.201464
0.041761
1.82111
1.97391
0.973572
0.984666
0.842894
0.683435
0.522762
0.362118
0.201563
0.0425271
1.80634
1.9392
1.02911
0.986577
0.842538
0.683281
0.522711
0.36211
0.201631
0.0430257
1.79126
1.9097
1.07643
0.98935
0.842329
0.683139
0.522661
0.362098
0.201664
0.0432711
1.77859
1.88445
1.11649
0.992636
0.84224
0.683009
0.522612
0.362082
0.201659
0.0432702
1.76935
1.86286
1.15017
0.996143
0.842239
0.682891
0.522563
0.362063
0.201618
0.0430231
1.76395
1.84445
1.1782
0.999629
0.842295
0.682782
0.522516
0.362041
0.201541
0.0425228
1.76256
1.82884
1.20117
1.0029
0.842375
0.682682
0.52247
0.362016
0.201433
0.0417552
1.76516
1.81579
1.21962
1.00579
0.842452
0.682587
0.522427
0.36199
0.201299
0.0406982
1.77104
1.80505
1.23398
1.00819
0.842498
0.682496
0.522387
0.361965
0.201147
0.0393217
1.77784
1.79666
1.24462
1.01
0.842492
0.682406
0.522349
0.361941
0.200989
0.0375855
1.78433
1.79083
1.25185
1.01115
0.842417
0.682318
0.522315
0.36192
0.200838
0.0354388
1.79013
1.7877
1.25589
1.01158
0.842259
0.682229
0.522285
0.361903
0.200711
0.0328023
1.79461
1.78778
1.25687
1.01122
0.841991
0.682132
0.522257
0.361892
0.200646
0.0292583
0
0
0.88325
1.02787
0.848734
0.684653
0.523072
0.362119
0.200489
0.0244248
0
0
0.883665
1.01981
0.848095
0.684533
0.523044
0.362116
0.200537
0.0272874
0
0
0.844508
1.01524
0.847268
0.684384
0.523009
0.362114
0.200643
0.0298108
0
0
0.838649
1.00466
0.846341
0.684214
0.522968
0.362113
0.200779
0.0319028
1.8678
2.02719
0.85511
0.995748
0.845372
0.684032
0.522923
0.362113
0.200925
0.0336048
1.86221
2.00707
0.89775
0.990034
0.844468
0.683844
0.522874
0.362111
0.201066
0.0349594
1.8517
1.97999
0.94751
0.987294
0.843699
0.683657
0.522823
0.362108
0.201189
0.036002
1.83725
1.95123
0.997618
0.986776
0.843094
0.683476
0.52277
0.362102
0.201287
0.0367601
1.82194
1.92346
1.04395
0.98787
0.842659
0.683306
0.522716
0.362092
0.201354
0.0372541
1.80796
1.89797
1.08543
0.990063
0.842376
0.683147
0.522661
0.362079
0.201386
0.0374973
1.79625
1.87528
1.12175
0.992934
0.842222
0.683001
0.522608
0.362062
0.201382
0.0374963
1.78745
1.85548
1.153
0.996143
0.842164
0.682868
0.522555
0.362042
0.20134
0.0372513
1.7822
1.8385
1.17945
0.999414
0.842171
0.682746
0.522505
0.362019
0.201264
0.0367556
1.78065
1.82421
1.20142
1.00253
0.842211
0.682633
0.522456
0.361994
0.201157
0.0359958
1.78255
1.81249
1.21927
1.00532
0.842253
0.682527
0.52241
0.361968
0.201025
0.0349516
1.78758
1.80324
1.23332
1.00764
0.842272
0.682427
0.522367
0.361942
0.200877
0.0335954
1.79514
1.79643
1.24385
1.0094
0.842245
0.682331
0.522328
0.361918
0.200724
0.0318921
1.80335
1.79197
1.25113
1.01052
0.842155
0.682237
0.522292
0.361897
0.200582
0.0297989
1.80948
1.78986
1.25536
1.01096
0.841993
0.682147
0.522262
0.361881
0.200472
0.0272745
1.81279
1.78981
1.25654
1.01071
0.841769
0.682064
0.522237
0.361871
0.20042
0.0244112

VECTORS velocity float
0 0 0
0 0 0
0.839134 -0.0338152 0.000521789
0.707607 -0.0038371 0.000412356
0.751859 -0.000821364 5.42401e-05
0.761533 -0.000178713 1.09474e-05
0.76366 -4.06074e-05 2.29296e-06
0.764163 -1.01828e-05 -1.20403e-06
0.764525 -1.36953e-05 -2.35058e-05
0.773739 -0.000631098 -0.000529605
0 0 0
0 0 0
-0.174106 -0.100842 0.000615916
0.714663 -0.013474 0.00032518
0.779819 -0.00255101 5.9714e-05
0.790469 -0.00055011 1.22695e-05
0.792759 -0.000124951 2.57719e-06
0.793299 -3.12899e-05 -1.19247e-06
0.793682 -4.17288e-05 -2.48974e-05
0.796215 -0.00119347 -0.000590545
0 0 0
0 0 0
0.854958 -0.170129 0.00178418
0.7388 -0.0229016 0.000271407
0.78178 -0.00429169 5.31088e-05
0.791612 -0.000926035 1.17025e-05
0.793792 -0.000210501 2.49638e-06
0.794306 -5.25094e-05 -1.24594e-06
0.794635 -6.50508e-05 -2.58334e-05
0.796917 -0.00102961 -0.000602887
0 0 0
0 0 0
-0.158997 -0.241015 0.00088915
0.731514 -0.0309837 0.000120809
0.782853 -0.00588773 4.71877e-05
0.791877 -0.001277 1.07174e-05
0.793874 -0.000290825 2.30363e-06
0.794347 -7.20952e-05 -1.32343e-06
0.794623 -7.84357e-05 -2.64534e-05
0.796986 -0.000848458 -0.000609367
0.458767 -0.0195844 -0.0422364
0.935435 0.00302982 -0.0200548
0.866892 -0.266999 0.00998704
0.753528 -0.0382036 0.000561906
0.784566 -0.00729449 4.82113e-05
0.792183 -0.00159211 9.50671e-06
0.793941 -0.000363522 2.03385e-06
0.79436 -8.94257e-05 -1.41338e-06
0.794589 -8.36365e-05 -2.68354e-05
0.797029 -0.000685613 -0.000613096
0.522107 -0.0526096 -0.0484829
1.00058 0.00403076 -0.0162721
0.929139 -0.245655 0.00958477
0.768824 -0.0425991 0.000704474
0.786476 -0.00844808 4.53926e-05
0.792546 -0.00186273 8.00649e-06
0.79402 -0.000426702 1.69864e-06
0.794375 -0.000104065 -1.51375e-06
0.794564 -8.24081e-05 -2.7091e-05
0.797064 -0.000539596 -0.000615346
0.566066 -0.072517 -0.0551923
0.995991 -0.000458332 -0.0129391
0.930468 -0.220393 0.00547409
0.780319 -0.0449423 0.000492621
0.788509 -0.0093279 3.53167e-05
0.792956 -0.00208213 6.24703e-06
0.794111 -0.000478767 1.31429e-06
0.794393 -0.000115687 -1.62084e-06
0.794545 -7.61555e-05 -2.72661e-05
0.797091 -0.000407219 -0.000616723
0.603467 -0.079189 -0.0618353
0.990015 -0.00488088 -0.0111387
0.928582 -0.19553 0.00311337
0.790149 -0.0456449 0.000314639
0.790609 -0.00992387 2.46883e-05
0.7934 -0.00224531 4.38098e-06
0.79421 -0.000518444 8.96392e-07
0.794414 -0.000124067 -1.73167e-06
0.794534 -6.60393e-05 -2.73874e-05
0.797112 -0.000285257 -0.00061756
0.633931 -0.0743278 -0.0677848
0.985041 -0.00800635 -0.0102442
0.926732 -0.172148 0.00170411
0.798739 -0.0450448 0.000187897
0.792708 -0.0102378 1.44061e-05
0.793865 -0.00234912 2.48165e-06
0.794316 -0.000544811 4.58886e-07
0.794437 -0.000129079 -1.84348e-06
0.794529 -5.30499e-05 -2.747e-05
0.797126 -0.000170578 -0.000618041
0.657136 -0.0600901 -0.0726189
0.980711 -0.00947353 -0.00983005
0.925038 -0.150502 0.000810584
0.8062 -0.0434068 9.74044e-05
0.794751 -0.0102804 5.1068e-06
0.794338 -0.00239219 6.12962e-07
0.794425 -0.000557305 1.45947e-08
0.794461 -0.000130691 -1.95356e-06