# vtk DataFile Version 2.0
TestTestTest
ASCII

DATASET STRUCTURED_GRID
DIMENSIONS 11 21 11
POINTS 2541 float
0 0 0
0.5 0 0
1 0 0
1.5 0 0
2 0 0
2.5 0 0
3 0 0
3.5 0 0
4 0 0
4.5 0 0
5 0 0
0 0.05 0
0.5 0.05 0
1 0.05 0
1.5 0.05 0
2 0.05 0
2.5 0.05 0
3 0.05 0
3.5 0.05 0
4 0.05 0
4.5 0.05 0
5 0.05 0
0 0.1 0
0.5 0.1 0
1 0.1 0
1.5 0.1 0
2 0.1 0
2.5 0.1 0
3 0.1 0
3.5 0.1 0
4 0.1 0
4.5 0.1 0
5 0.1 0
0 0.15 0
0.5 0.15 0
1 0.15 0
1.5 0.15 0
2 0.15 0
2.5 0.15 0
3 0.15 0
3.5 0.15 0
4 0.15 0
4.5 0.15 0
5 0.15 0
0 0.2 0
0.5 0.2 0
1 0.2 0
1.5 0.2 0
2 0.2 0
2.5 0.2 0
3 0.2 0
3.5 0.2 0
4 0.2 0
4.5 0.2 0
5 0.2 0
0 0.25 0
0.5 0.25 0
1 0.25 0
1.5 0.25 0
2 0.25 0
2.5 0.25 0
3 0.25 0
3.5 0.25 0
4 0.25 0
4.5 0.25 0
5 0.25 0
0 0.3 0
0.5 0.3 0
1 0.3 0
1.5 0.3 0
2 0.3 0
2.5 0.3 0
3 0.3 0
3.5 0.3 0
4 0.3 0
4.5 0.3 0
5 0.3 0
0 0.35 0
0.5 0.35 0
1 0.35 0
1.5 0.35 0
2 0.35 0
2.5 0.35 0
3 0.35 0
3.5 0.35 0
4 0.35 0
4.5 0.35 0
5 0.35 0
0 0.4 0
0.5 0.4 0
1 0.4 0
1.5 0.4 0
2 0.4 0
2.5 0.4 0
3 0.4 0
3.5 0.4 0
4 0.4 0
4.5 0.4 0
5 0.4 0
0 0.45 0
0.5 0.45 0
1 0.45 0
1.5 0.45 0
2 0.45 0
2.5 0.45 0
3 0.45 0
3.5 0.45 0
4 0.45 0
4.5 0.45 0
5 0.45 0
0 0.5 0
0.5 0.5 0
1 0.5 0
1.5 0.5 0
2 0.5 0
2.5 0.5 0
3 0.5 0
3.5 0.5 0
4 0.5 0
4.5 0.5 0
5 0.5 0
0 0.55 0
0.5 0.55 0
1 0.55 0
1.5 0.55 0
2 0.55 0
2.5 0.55 0
3 0.55 0
3.5 0.55 0
4 0.55 0
4.5 0.55 0
5 0.55 0
0 0.6 0
0.5 0.6 0
1 0.6 0
1.5 0.6 0
2 0.6 0
2.5 0.6 0
3 0.6 0
3.5 0.6 0
4 0.6 0
4.5 0.6 0
5 0.6 0
0 0.65 0
0.5 0.65 0
1 0.65 0
1.5 0.65 0
2 0.65 0
2.5 0.65 0
3 0.65 0
3.5 0.65 0
4 0.65 0
4.5 0.65 0
5 0.65 0
0 0.7 0
0.5 0.7 0
1 0.7 0
1.5 0.7 0
2 0.7 0
2.5 0.7 0
3 0.7 0
3.5 0.7 0
4 0.7 0
4.5 0.7 0
5 0.7 0
0 0.75 0
0.5 0.75 0
1 0.75 0
1.5 0.75 0
2 0.75 0
2.5 0.75 0
3 0.75 0
3.5 0.75 0
4 0.75 0
4.5 0.75 0
5 0.75 0
0 0.8 0
0.5 0.8 0
1 0.8 0
1.5 0.8 0
2 0.8 0
2.5 0.8 0
3 0.8 0
3.5 0.8 0
4 0.8 0
4.5 0.8 0
5 0.8 0
0 0.85 0
0.5 0.85 0
1 0.85 0
1.5 0.85 0
2 0.85 0
2.5 0.85 0
3 0.85 0
3.5 0.85 0
4 0.85 0
4.5 0.85 0
5 0.85 0
0 0.9 0
0.5 0.9 0
1 0.9 0
1.5 0.9 0
2 0.9 0
2.5 0.9 0
3 0.9 0
3.5 0.9 0
4 0.9 0
4.5 0.9 0
5 0.9 0
0 0.95 0
0.5 0.95 0
1 0.95 0
1.5 0.95 0
2 0.95 0
2.5 0.95 0
3 0.95 0
3.5 0.95 0
4 0.95 0
4.5 0.95 0
5 0.95 0
0 1 0
0.5 1 0
1 1 0
1.5 1 0
2 1 0
2.5 1 0
3 1 0
3.5 1 0
4 1 0
4.5 1 0
5 1 0
0 0 0.1
0.5 0 0.1
1 0 0.1
1.5 0 0.1
2 0 0.1
2.5 0 0.1
3 0 0.1
3.5 0 0.1
4 0 0.1
4.5 0 0.1
5 0 0.1
0 0.05 0.1
0.5 0.05 0.1
1 0.05 0.1
1.5 0.05 0.1
2 0.05 0.1
2.5 0.05 0.1
3 0.05 0.1
3.5 0.05 0.1
4 0.05 0.1
4.5 0.05 0.1
5 0.05 0.1
0 0.1 0.1
0.5 0.1 0.1
1 0.1 0.1
1.5 0.1 0.1
2 0.1 0.1
2.5 0.1 0.1
3 0.1 0.1
3.5 0.1 0.1
4 0.1 0.1
4.5 0.1 0.1
5 0.1 0.1
0 0.15 0.1
0.5 0.15 0.1
1 0.15 0.1
1.5 0.15 0.1
2 0.15 0.1
2.5 0.15 0.1
3 0.15 0.1
3.5 0.15 0.1
4 0.15 0.1
4.5 0.15 0.1
5 0.15 0.1
0 0.2 0.1
0.5 0.2 0.1
1 0.2 0.1
1.5 0.2 0.1
2 0.2 0.1
2.5 0.2 0.1
3 0.2 0.1
3.5 0.2 0.1
4 0.2 0.1
4.5 0.2 0.1
5 0.2 0.1
0 0.25 0.1
0.5 0.25 0.1
1 0.25 0.1
1.5 0.25 0.1
2 0.25 0.1
2.5 0.25 0.1
3 0.25 0.1
3.5 0.25 0.1
4 0.25 0.1
4.5 0.25 0.1
5 0.25 0.1
0 0.3 0.1
0.5 0.3 0.1
1 0.3 0.1
1.5 0.3 0.1
2 0.3 0.1
2.5 0.3 0.1
3 0.3 0.1
3.5 0.3 0.1
4 0.3 0.1
4.5 0.3 0.1
5 0.3 0.1
0 0.35 0.1
0.5 0.35 0.1
1 0.35 0.1
1.5 0.35 0.1
2 0.35 0.1
2.5 0.35 0.1
3 0.35 0.1
3.5 0.35 0.1
4 0.35 0.1
4.5 0.35 0.1
5 0.35 0.1
0 0.4 0.1
0.5 0.4 0.1
1 0.4 0.1
1.5 0.4 0.1
2 0.4 0.1
2.5 0.4 0.1
3 0.4 0.1
3.5 0.4 0.1
4 0.4 0.1
4.5 0.4 0.1
5 0.4 0.1
0 0.45 0.1
0.5 0.45 0.1
1 0.45 0.1
1.5 0.45 0.1
2 0.45 0.1
2.5 0.45 0.1
3 0.45 0.1
3.5 0.45 0.1
4 0.45 0.1
4.5 0.45 0.1
5 0.45 0.1
0 0.5 0.1
0.5 0.5 0.1
1 0.5 0.1
1.5 0.5 0.1
2 0.5 0.1
2.5 0.5 0.1
3 0.5 0.1
3.5 0.5 0.1
4 0.5 0.1
4.5 0.5 0.1
5 0.5 0.1
0 0.55 0.1
0.5 0.55 0.1
1 0.55 0.1
1.5 0.55 0.1
2 0.55 0.1
2.5 0.55 0.1
3 0.55 0.1
3.5 0.55 0.1
4 0.55 0.1
4.5 0.55 0.1
5 0.55 0.1
0 0.6 0.1
0.5 0.6 0.1
1 0.6 0.1
1.5 0.6 0.1
2 0.6 0.1
2.5 0.6 0.1
3 0.6 0.1
3.5 0.6 0.1
4 0.6 0.1
4.5 0.6 0.1
5 0.6 0.1
0 0.65 0.1
0.5 0.65 0.1
1 0.65 0.1
1.5 0.65 0.1
2 0.65 0.1
2.5 0.65 0.1
3 0.65 0.1
3.5 0.65 0.1
4 0.65 0.1
4.5 0.65 0.1
5 0.65 0.1
0 0.7 0.1
0.5 0.7 0.1
1 0.7 0.1
1.5 0.7 0.1
2 0.7 0.1
2.5 0.7 0.1
3 0.7 0.1
3.5 0.7 0.1
4 0.7 0.1
4.5 0.7 0.1
5 0.7 0.1
0 0.75 0.1
0.5 0.75 0.1
1 0.75 0.1
1.5 0.75 0.1
2 0.75 0.1
2.5 0.75 0.1
3 0.75 0.1
3.5 0.75 0.1
4 0.75 0.1
4.5 0.75 0.1
5 0.75 0.1
0 0.8 0.1
0.5 0.8 0.1
1 0.8 0.1
1.5 0.8 0.1
2 0.8 0.1
2.5 0.8 0.1
3 0.8 0.1
3.5 0.8 0.1
4 0.8 0.1
4.5 0.8 0.1
5 0.8 0.1
0 0.85 0.1
0.5 0.85 0.1
1 0.85 0.1
1.5 0.85 0.1
2 0.85 0.1
2.5 0.85 0.1
3 0.85 0.1
3.5 0.85 0.1
4 0.85 0.1
4.5 0.85 0.1
5 0.85 0.1
0 0.9 0.1
0.5 0.9 0.1
1 0.9 0.1
1.5 0.9 0.1
2 0.9 0.1
2.5 0.9 0.1
3 0.9 0.1
3.5 0.9 0.1
4 0.9 0.1
4.5 0.9 0.1
5 0.9 0.1
0 0.95 0.1
0.5 0.95 0.1
1 0.95 0.1
1.5 0.95 0.1
2 0.95 0.1
2.5 0.95 0.1
3 0.95 0.1
3.5 0.95 0.1
4 0.95 0.1
4.5 0.95 0.1
5 0.95 0.1
0 1 0.1
0.5 1 0.1
1 1 0.1
1.5 1 0.1
2 1 0.1
2.5 1 0.1
3 1 0.1
3.5 1 0.1
4 1 0.1
4.5 1 0.1
5 1 0.1
0 0 0.2
0.5 0 0.2
1 0 0.2
1.5 0 0.2
2 0 0.2
2.5 0 0.2
3 0 0.2
3.5 0 0.2
4 0 0.2
4.5 0 0.2
5 0 0.2
0 0.05 0.2
0.5 0.05 0.2
1 0.05 0.2
1.5 0.05 0.2
2 0.05 0.2
2.5 0.05 0.2
3 0.05 0.2
3.5 0.05 0.2
4 0.05 0.2
4.5 0.05 0.2
5 0.05 0.2
0 0.1 0.2
0.5 0.1 0.2
1 0.1 0.2
1.5 0.1 0.2
2 0.1 0.2
2.5 0.1 0.2
3 0.1 0.2
3.5 0.1 0.2
4 0.1 0.2
4.5 0.1 0.2
5 0.1 0.2
0 0.15 0.2
0.5 0.15 0.2
1 0.15 0.2
1.5 0.15 0.2
2 0.15 0.2
2.5 0.15 0.2
3 0.15 0.2
3.5 0.15 0.2
4 0.15 0.2
4.5 0.15 0.2
5 0.15 0.2
0 0.2 0.2
0.5 0.2 0.2
1 0.2 0.2
1.5 0.2 0.2
2 0.2 0.2
2.5 0.2 0.2
3 0.2 0.2
3.5 0.2 0.2
4 0.2 0.2
4.5 0.2 0.2
5 0.2 0.2
0 0.25 0.2
0.5 0.25 0.2
1 0.25 0.2
1.5 0.25 0.2
2 0.25 0.2
2.5 0.25 0.2
3 0.25 0.2
3.5 0.25 0.2
4 0.25 0.2
4.5 0.25 0.2
5 0.25 0.2
0 0.3 0.2
0.5 0.3 0.2
1 0.3 0.2
1.5 0.3 0.2
2 0.3 0.2
2.5 0.3 0.2
3 0.3 0.2
3.5 0.3 0.2
4 0.3 0.2
4.5 0.3 0.2
5 0.3 0.2
0 0.35 0.2
0.5 0.35 0.2
1 0.35 0.2
1.5 0.35 0.2
2 0.35 0.2
2.5 0.35 0.2
3 0.35 0.2
3.5 0.35 0.2
4 0.35 0.2
4.5 0.35 0.2
5 0.35 0.2
0 0.4 0.2
0.5 0.4 0.2
1 0.4 0.2
1.5 0.4 0.2
2 0.4 0.2
2.5 0.4 0.2
3 0.4 0.2
3.5 0.4 0.2
4 0.4 0.2
4.5 0.4 0.2
5 0.4 0.2
0 0.45 0.2
0.5 0.45 0.2
1 0.45 0.2
1.5 0.45 0.2
2 0.45 0.2
2.5 0.45 0.2
3 0.45 0.2
3.5 0.45 0.2
4 0.45 0.2
4.5 0.45 0.2
5 0.45 0.2
0 0.5 0.2
0.5 0.5 0.2
1 0.5 0.2
1.5 0.5 0.2
2 0.5 0.2
2.5 0.5 0.2
3 0.5 0.2
3.5 0.5 0.2
4 0.5 0.2
4.5 0.5 0.2
5 0.5 0.2
0 0.55 0.2
0.5 0.55 0.2
1 0.55 0.2
1.5 0.55 0.2
2 0.55 0.2
2.5 0.55 0.2
3 0.55 0.2
3.5 0.55 0.2
4 0.55 0.2
4.5 0.55 0.2
5 0.55 0.2
0 0.6 0.2
0.5 0.6 0.2
1 0.6 0.2
1.5 0.6 0.2
2 0.6 0.2
2.5 0.6 0.2
3 0.6 0.2
3.5 0.6 0.2
4 0.6 0.2
4.5 0.6 0.2
5 0.6 0.2
0 0.65 0.2
0.5 0.65 0.2
1 0.65 0.2
1.5 0.65 0.2
2 0.65 0.2
2.5 0.65 0.2
3 0.65 0.2
3.5 0.65 0.2
4 0.65 0.2
4.5 0.65 0.2
5 0.65 0.2
0 0.7 0.2
0.5 0.7 0.2
1 0.7 0.2
1.5 0.7 0.2
2 0.7 0.2
2.5 0.7 0.2
3 0.7 0.2
3.5 0.7 0.2
4 0.7 0.2
4.5 0.7 0.2
5 0.7 0.2
0 0.75 0.2
0.5 0.75 0.2
1 0.75 0.2
1.5 0.75 0.2
2 0.75 0.2
2.5 0.75 0.2
3 0.75 0.2
3.5 0.75 0.2
4 0.75 0.2
4.5 0.75 0.2
5 0.75 0.2
0 0.8 0.2
0.5 0.8 0.2
1 0.8 0.2
1.5 0.8 0.2
2 0.8 0.2
2.5 0.8 0.2
3 0.8 0.2
3.5 0.8 0.2
4 0.8 0.2
4.5 0.8 0.2
5 0.8 0.2
0 0.85 0.2
0.5 0.85 0.2
1 0.85 0.2
1.5 0.85 0.2
2 0.85 0.2
2.5 0.85 0.2
3 0.85 0.2
3.5 0.85 0.2
4 0.85 0.2
4.5 0.85 0.2
5 0.85 0.2
0 0.9 0.2
0.5 0.9 0.2
1 0.9 0.2
1.5 0.9 0.2
2 0.9 0.2
2.5 0.9 0.2
3 0.9 0.2
3.5 0.9 0.2
4 0.9 0.2
4.5 0.9 0.2
5 0.9 0.2
0 0.95 0.2
0.5 0.95 0.2
1 0.95 0.2
1.5 0.95 0.2
2 0.95 0.2
2.5 0.95 0.2
3 0.95 0.2
3.5 0.95 0.2
4 0.95 0.2
4.5 0.95 0.2
5 0.95 0.2
0 1 0.2
0.5 1 0.2
1 1 0.2
1.5 1 0.2
2 1 0.2
2.5 1 0.2
3 1 0.2
3.5 1 0.2
4 1 0.2
4.5 1 0.2
5 1 0.2
0 0 0.3
0.5 0 0.3
1 0 0.3
1.5 0 0.3
2 0 0.3
2.5 0 0.3
3 0 0.3
3.5 0 0.3
4 0 0.3
4.5 0 0.3
5 0 0.3
0 0.05 0.3
0.5 0.05 0.3
1 0.05 0.3
1.5 0.05 0.3
2 0.05 0.3
2.5 0.05 0.3
3 0.05 0.3
3.5 0.05 0.3
4 0.05 0.3
4.5 0.05 0.3
5 0.05 0.3
0 0.1 0.3
0.5 0.1 0.3
1 0.1 0.3
1.5 0.1 0.3
2 0.1 0.3
2.5 0.1 0.3
3 0.1 0.3
3.5 0.1 0.3
4 0.1 0.3
4.5 0.1 0.3
5 0.1 0.3
0 0.15 0.3
0.5 0.15 0.3
1 0.15 0.3
1.5 0.15 0.3
2 0.15 0.3
2.5 0.15 0.3
3 0.15 0.3
3.5 0.15 0.3
4 0.15 0.3
4.5 0.15 0.3
5 0.15 0.3
0 0.2 0.3
0.5 0.2 0.3
1 0.2 0.3
1.5 0.2 0.3
2 0.2 0.3
2.5 0.2 0.3
3 0.2 0.3
3.5 0.2 0.3
4 0.2 0.3
4.5 0.2 0.3
5 0.2 0.3
0 0.25 0.3
0.5 0.25 0.3
1 0.25 0.3
1.5 0.25 0.3
2 0.25 0.3
2.5 0.25 0.3
3 0.25 0.3
3.5 0.25 0.3
4 0.25 0.3
4.5 0.25 0.3
5 0.25 0.3
0 0.3 0.3
0.5 0.3 0.3
1 0.3 0.3
1.5 0.3 0.3
2 0.3 0.3
2.5 0.3 0.3
3 0.3 0.3
3.5 0.3 0.3
4 0.3 0.3
4.5 0.3 0.3
5 0.3 0.3
0 0.35 0.3
0.5 0.35 0.3
1 0.35 0.3
1.5 0.35 0.3
2 0.35 0.3
2.5 0.35 0.3
3 0.35 0.3
3.5 0.35 0.3
4 0.35 0.3
4.5 0.35 0.3
5 0.35 0.3
0 0.4 0.3
0.5 0.4 0.3
1 0.4 0.3
1.5 0.4 0.3
2 0.4 0.3
2.5 0.4 0.3
3 0.4 0.3
3.5 0.4 0.3
4 0.4 0.3
4.5 0.4 0.3
5 0.4 0.3
0 0.45 0.3
0.5 0.45 0.3
1 0.45 0.3
1.5 0.45 0.3
2 0.45 0.3
2.5 0.45 0.3
3 0.45 0.3
3.5 0.45 0.3
4 0.45 0.3
4.5 0.45 0.3
5 0.45 0.3
0 0.5 0.3
0.5 0.5 0.3
1 0.5 0.3
1.5 0.5 0.3
2 0.5 0.3
2.5 0.5 0.3
3 0.5 0.3
3.5 0.5 0.3
4 0.5 0.3
4.5 0.5 0.3
5 0.5 0.3
0 0.55 0.3
0.5 0.55 0.3
1 0.55 0.3
1.5 0.55 0.3
2 0.55 0.3
2.5 0.55 0.3
3 0.55 0.3
3.5 0.55 0.3
4 0.55 0.3
4.5 0.55 0.3
5 0.55 0.3
0 0.6 0.3
0.5 0.6 0.3
1 0.6 0.3
1.5 0.6 0.3
2 0.6 0.3
2.5 0.6 0.3
3 0.6 0.3
3.5 0.6 0.3
4 0.6 0.3
4.5 0.6 0.3
5 0.6 0.3
0 0.65 0.3
0.5 0.65 0.3
1 0.65 0.3
1.5 0.65 0.3
2 0.65 0.3
2.5 0.65 0.3
3 0.65 0.3
3.5 0.65 0.3
4 0.65 0.3
4.5 0.65 0.3
5 0.65 0.3
0 0.7 0.3
0.5 0.7 0.3
1 0.7 0.3
1.5 0.7 0.3
2 0.7 0.3
2.5 0.7 0.3
3 0.7 0.3
3.5 0.7 0.3
4 0.7 0.3
4.5 0.7 0.3
5 0.7 0.3
0 0.75 0.3
0.5 0.75 0.3
1 0.75 0.3
1.5 0.75 0.3
2 0.75 0.3
2.5 0.75 0.3
3 0.75 0.3
3.5 0.75 0.3
4 0.75 0.3
4.5 0.75 0.3
5 0.75 0.3
0 0.8 0.3
0.5 0.8 0.3
1 0.8 0.3
1.5 0.8 0.3
2 0.8 0.3
2.5 0.8 0.3
3 0.8 0.3
3.5 0.8 0.3
4 0.8 0.3
4.5 0.8 0.3
5 0.8 0.3
0 0.85 0.3
0.5 0.85 0.3
1 0.85 0.3
1.5 0.85 0.3
2 0.85 0.3
2.5 0.85 0.3
3 0.85 0.3
3.5 0.85 0.3
4 0.85 0.3
4.5 0.85 0.3
5 0.85 0.3
0 0.9 0.3
0.5 0.9 0.3
1 0.9 0.3
1.5 0.9 0.3
2 0.9 0.3
2.5 0.9 0.3
3 0.9 0.3
3.5 0.9 0.3
4 0.9 0.3
4.5 0.9 0.3
5 0.9 0.3
0 0.95 0.3
0.5 0.95 0.3
1 0.95 0.3
1.5 0.95 0.3
2 0.95 0.3
2.5 0.95 0.3
3 0.95 0.3
3.5 0.95 0.3
4 0.95 0.3
4.5 0.95 0.3
5 0.95 0.3
0 1 0.3
0.5 1 0.3
1 1 0.3
1.5 1 0.3
2 1 0.3
2.5 1 0.3
3 1 0.3
3.5 1 0.3
4 1 0.3
4.5 1 0.3
5 1 0.3
0 0 0.4
[...]
CELL_DATA 2000
SCALARS pressure float 1
LOOKUP_TABLE default
0
0
0.834716
0.902668
0.737937
0.591611
0.45127
0.312528
0.173546
0.0231887
0
0
0.831499
0.896155
0.737347
0.591486
0.451241
0.312524
0.173527
0.0248975
0
0
0.802273
0.892412
0.736416
0.591281
0.451192
0.312517
0.173581
0.0267846
0
0
0.788691
0.88375
0.735181
0.591006
0.451127
0.312508
0.173678
0.0284455
1.19138
1.332
0.789964
0.875208
0.733667
0.590674
0.451048
0.312497
0.173789
0.0297919
1.18995
1.33331
0.803367
0.866981
0.731991
0.5903
0.450958
0.312484
0.173898
0.0308574
1.18504
1.33335
0.821819
0.860064
0.730265
0.589897
0.450858
0.312468
0.173995
0.0316736
1.17732
1.33124
0.845988
0.854758
0.728574
0.589476
0.450751
0.312448
0.174072
0.0322649
1.16913
1.32684
0.871104
0.85104
0.726992
0.58905
0.45064
0.312425
0.174123
0.0326491
1.162
1.32123
0.894506
0.848554
0.725548
0.588626
0.450527
0.312398
0.174146
0.0328377
1.15651
1.31528
0.915548
0.846978
0.724246
0.588212
0.450413
0.312368
0.174138
0.0328364
1.15297
1.30955
0.934043
0.846055
0.723083
0.587815
0.450301
0.312336
0.174101
0.0326452
1.15174
1.30446
0.949947
0.845566
0.722048
0.58744
0.450193
0.312302
0.174035
0.0322584
1.15283
1.30018
0.963304
0.84533
0.721128
0.587092
0.450091
0.312267
0.173945
0.0316647
1.15616
1.29679
0.974198
0.845199
0.720313
0.586773
0.449997
0.312233
0.173835
0.0308462
1.16155
1.29424
0.982732
0.845056
0.719589
0.586488
0.449913
0.312201
0.173714
0.0297787
1.16857
1.2924
0.989024
0.844813
0.718947
0.586238
0.449839
0.312173
0.173594
0.0284306
1.17569
1.29099
0.993222
0.844428
0.718388
0.586028
0.449778
0.31215
0.173489
0.0267682
1.18038
1.29002
0.995534
0.843947
0.717939
0.585869
0.449733
0.312133
0.17343
0.02488
1.18181
1.28964
0.995878
0.843404
0.71763
0.585769
0.449706
0.312124
0.173445
0.0231705
0
0
0.843294
0.901862
0.738129
0.591606
0.451266
0.312539
0.173705
0.0268045
0
0
0.837989
0.895705
0.737249
0.591449
0.451232
0.312531
0.173593
0.0296184
0
0
0.808811
0.891848
0.736202
0.591223
0.451179
0.312521
0.173696
0.0318787
0
0
0.811414
0.885532
0.734878
0.590942
0.451114
0.312513
0.173829
0.033556
1.17972
1.32702
0.770132
0.876064
0.733343
0.590615
0.451036
0.312503
0.17396
0.0349126
1.17794
1.34395
0.77628
0.865626
0.731656
0.59025
0.450948
0.312491
0.174081
0.0359877
1.17442
1.34499
0.80156
0.857728
0.729946
0.589858
0.450851
0.312476
0.174185
0.036812
1.16966
1.33879
0.830122
0.852623
0.72832
0.589449
0.450746
0.312457
0.174266
0.0374095
1.16434
1.33039
0.858424
0.849311
0.726812
0.589032
0.450638
0.312435
0.174319
0.0377978
1.15921
1.32125
0.885107
0.847184
0.725429
0.588618
0.450526
0.312409
0.174343
0.0379883
1.15529
1.31227
0.908792
0.84594
0.724177
0.588213
0.450415
0.31238
0.174336
0.0379871
1.15264
1.30439
0.929235
0.845301
0.723055
0.587826
0.450306
0.312348
0.174297
0.0377939
1.15124
1.29819
0.946611
0.845047
0.722056
0.58746
0.4502
0.312314
0.17423
0.0374032
1.15111
1.29382
0.961098
0.845002
0.721169
0.58712
0.4501
0.312279
0.174135
0.0368034
1.15264
1.2911
0.972837
0.845024
0.720382
0.586809
0.450008
0.312244
0.174019
0.0359769
1.15591
1.28956
0.981953
0.845003
0.719682
0.58653
0.449925
0.312212
0.173887
0.0348998
1.16002
1.28857
0.988593
0.844864
0.719061
0.586285
0.449852
0.312183
0.173746
0.0335414
1.16431
1.28773
0.992908
0.844548
0.718516
0.586077
0.449792
0.31216
0.173605
0.0318627
1.16796
1.28734
0.995272
0.844037
0.718038
0.585906
0.449743
0.312145
0.173497
0.0296012
1.17048
1.28847
0.995586
0.84336
0.717668
0.585788
0.449712
0.312137
0.173605
0.0267866
0
0
0.853539
0.903891
0.738477
0.591605
0.45126
0.31256
0.173982
0.029804
0
0
0.847647
0.898419
0.737527
0.591434
0.451223
0.312552
0.173881
0.0328882
0
0
0.822172
0.895382
0.736456
0.591192
0.451168
0.312543
0.174015
0.0353448
0
0
0.826889
0.890391
0.735175
0.590911
0.451103
0.312536
0.174175
0.0371125
1.16697
1.31609
0.764294
0.881163
0.733683
0.590587
0.451026
0.312529
0.174325
0.0385199
1.16545
1.34875
0.748373
0.868998
0.731977
0.590224
0.450939
0.312518
0.174459
0.0396284
1.16525
1.36013
0.7695
0.858421
0.730152
0.589834
0.450843
0.312505
0.174572
0.0404745
1.1685
1.35489
0.805773
0.851187
0.728366
0.589428
0.450742
0.312488
0.174658
0.0410858
1.17385
1.3395
0.840995
0.847051
0.726743
0.589016
0.450635
0.312467
0.174715
0.0414823
1.17917
1.32136
0.871801
0.84501
0.725321
0.588609
0.450527
0.312442
0.174741
0.0416768
1.18302
1.3052
0.898849
0.844151
0.724078
0.588212
0.450418
0.312413
0.174733
0.0416755
1.18421
1.29284
0.922272
0.843938
0.722986
0.587833
0.450312
0.312381
0.174694
0.0414786
1.18269
1.28453
0.94212
0.844066
0.722021
0.587476
0.450208
0.312347
0.174623
0.0410797
1.1784
1.28008
0.958616
0.844347
0.721169
0.587145
0.450111
0.312312
0.174523
0.0404661
1.17175
1.27906
0.971937
0.844647
0.720415
0.586842
0.450021
0.312277
0.174398
0.0396179
1.16427
1.28052
0.982036
0.844856
0.719747
0.58657
0.449939
0.312244
0.174253
0.0385074
1.15784
1.28277
0.988954
0.844881
0.719158
0.586332
0.449868
0.312214
0.174094
0.0370983
1.15465
1.28444
0.993151
0.844641
0.718628
0.586127
0.449808
0.312188
0.173926
0.0353293
1.1554
1.28564
0.995443
0.844131
0.718136
0.585947
0.449757
0.312171
0.173785
0.0328714
1.15774
1.28775
0.995872
0.843427
0.717742
0.585821
0.449724
0.312162
0.173882
0.0297864
0
0
0.859424
0.90623
0.738813
0.591615
0.451257
0.312581
0.174231
0.0317172
0
0
0.85414
0.901029
0.737859
0.591441
0.45122
0.312574
0.174136
0.034861
0
0
0.829249
0.898572
0.736811
0.591198
0.451164
0.312567
0.174282
0.0373752
0
0
0.831416
0.89417
0.735585
0.590921
0.451099
0.312562
0.174454
0.0391858
1.16031
1.31813
0.764642
0.885167
0.734148
0.590603
0.451024
0.312555
0.174614
0.0406247
1.1601
1.35428
0.737286
0.872582
0.732465
0.590246
0.450938
0.312547
0.174756
0.0417562
1.16387
1.37009
0.744059
0.86038
0.730583
0.589857
0.450844
0.312534
0.174875
0.0426188
1.17537
1.36673
0.77546
0.851024
0.728658
0.589447
0.450743
0.312518
0.174966
0.0432415
1.19339
1.34812
0.817136
0.845502
0.726865
0.589029
0.450637
0.312498
0.175026
0.043645
1.21269
1.32262
0.856309
0.842949
0.725302
0.588616
0.45053
0.312474
0.175053
0.0438427
1.22736
1.29771
0.888776
0.842094
0.723975
0.588217
0.450423
0.312445
0.175046
0.0438415
1.23412
1.27828
0.915757
0.842135
0.722847
0.587837
0.450317
0.312414
0.175005
0.0436414
1.23249
1.26662
0.938611
0.842631
0.721879
0.58748
0.450215
0.31238
0.174931
0.0432355
1.22232
1.26264
0.957378
0.843321
0.721047
0.587152
0.450119
0.312344
0.174827
0.0426105
1.20444
1.26452
0.971788
0.844005
0.720334
0.586854
0.45003
0.312309
0.174696
0.0417459
1.18281
1.26965
0.982151
0.844513
0.719717
0.586589
0.449949
0.312274
0.174543
0.0406125
1.16393
1.27582
0.989142
0.844725
0.719165
0.586354
0.449878
0.312243
0.174374
0.0391719
1.15279
1.28103
0.993395
0.844579
0.718653
0.586151
0.449818
0.312216
0.174194
0.0373598
1.1498
1.28433
0.995699
0.844111
0.718168
0.58597
0.449766
0.312197
0.174042
0.0348444
1.15087
1.28728
0.996243
0.843428
0.717774
0.585843
0.449733
0.312188
0.174133
0.0316998
0
0
0.861394
0.907577
0.739015
0.591625
0.451256
0.312595
0.174373
0.0326379
0
0
0.85614
0.90249
0.738065
0.591449
0.451219
0.312588
0.17428
0.0357964
0
0
0.830906
0.900289
0.737032
0.591207
0.451163
0.312581
0.174429
0.0383298
0
0
0.832164
0.896139
0.735833
0.590932
0.451099
0.312577
0.174605
0.0401577
1.15798
1.32162
0.764295
0.887221
0.734423
0.590617
0.451023
0.312572
0.17477
0.0416105
1.15872
1.35867
0.734524
0.8745
0.732758
0.590263
0.450938
0.312563
0.174916
0.0427528
1.16552
1.37497
0.736253
0.861931
0.73087
0.589877
0.450845
0.312552
0.175037
0.0436235
1.18283
1.37157
0.760529
0.85176
0.728899
0.589469
0.450745
0.312536
0.175131
0.0442519
1.20863
1.35194
0.798232
0.844964
0.727007
0.589047
0.45064
0.312516
0.175192
0.0446592
1.23648
1.32344
0.840602
0.841437
0.72532
0.588625
0.450532
0.312492
0.175219
0.0448589
1.25879
1.29419
0.880254
0.84035
0.723889
0.588217
0.450425
0.312464
0.175212
0.0448577
1.26948
1.27032
0.913091
0.840659
0.722703
0.587831
0.450319
0.312433
0.175171
0.0446556
1.26755
1.25596
0.938454
0.841582
0.721732
0.587474
0.450218
0.312398
0.175096
0.044246
1.253
1.25174
0.957537
0.842643
0.720934
0.587149
0.450122
0.312363
0.17499
0.0436154
1.22742
1.25511
0.971777
0.843587
0.720263
0.586856
0.450034
0.312327
0.174856
0.0427426
1.19742
1.26278
0.982149
0.844268
0.719678
0.586594
0.449954
0.312292
0.174699
0.0415984
1.17093
1.27158
0.989216
0.84459
0.719148
0.586363
0.449883
0.31226
0.174525
0.040144
1.15414
1.27891
0.993518
0.844505
0.71865
0.58616
0.449823
0.312233
0.174341
0.0383146
1.14824
1.28355
0.99585
0.844069
0.718172
0.58598
0.449771
0.312213
0.174185
0.03578
1.14841
1.28704
0.996467
0.843405
0.717781
0.585853
0.449738
0.312203
0.174275
0.0326207
0
0
0.861394
0.907577
0.739015
0.591625
0.451256
0.312595
0.174373
0.0326379
0
0
0.85614
0.90249
0.738065
0.591449
0.451219
0.312588
0.17428
0.0357964
0
0
0.830906
0.900289
0.737032
0.591207
0.451163
0.312581
0.174429
0.0383298
0
0
0.832164
0.896139
0.735833
0.590932
0.451099
0.312577
0.174605
0.0401577
1.15798
1.32162
0.764295
0.887221
0.734423
0.590617
0.451023
0.312572
0.17477
0.0416105
1.15872
1.35867
0.734524
0.8745
0.732758
0.590263
0.450938
0.312563
0.174916
0.0427528
1.16552
1.37497
0.736253
0.861931
0.73087
0.589877
0.450845
0.312552
0.175037
0.0436235
1.18283
1.37157
0.760529
0.85176
0.728899
0.589469
0.450745
0.312536
0.175131
0.0442519
1.20863
1.35194
0.798232
0.844964
0.727007
0.589047
0.45064
0.312516
0.175192
0.0446592
1.23648
1.32344
0.840602
0.841437
0.72532
0.588625
0.450532
0.312492
0.175219
0.0448589
1.25879
1.29419
0.880254
0.84035
0.723889
0.588217
0.450425
0.312464
0.175212
0.0448577
1.26948
1.27032
0.913091
0.840659
0.722703
0.587831
0.450319
0.312433
0.175171
0.0446556
1.26755
1.25596
0.938454
0.841582
0.721732
0.587474
0.450218
0.312398
0.175096
0.044246
1.253
1.25174
0.957537
0.842643
0.720934
0.587149
0.450122
0.312363
0.17499
0.0436154
1.22742
1.25511
0.971777
0.843587
0.720263
0.586856
0.450034
0.312327
0.174856
0.0427426
1.19742
1.26278
0.982149
0.844268
0.719678
0.586594
0.449954
0.312292
0.174699
0.0415984
1.17093
1.27158
0.989216
0.84459
0.719148
0.586363
0.449883
0.31226
0.174525
0.040144
1.15414
1.27891
0.993518
0.844505
0.71865
0.58616
0.449823
0.312233
0.174341
0.0383146
1.14824
1.28355
0.99585
0.844069
0.718172
0.58598
0.449771
0.312213
0.174185
0.03578
1.14841
1.28704
0.996467
0.843405
0.717781
0.585853
0.449738
0.312203
0.174275
0.0326207
0
0
0.859424
0.90623
0.738813
0.591615
0.451257
0.312581
0.174231
0.0317172
0
0
0.85414
0.901029
0.737859
0.591441
0.45122
0.312574
0.174136
0.034861
0
0
0.829249
0.898572
0.736811
0.591198
0.451164
0.312567
0.174282
0.0373752
0
0
0.831416
0.89417
0.735585
0.590921
0.451099
0.312562
0.174454
0.0391858
1.16031
1.31813
0.764642
0.885167
0.734148
0.590603
0.451024
0.312555
0.174614
0.0406247
1.1601
1.35428
0.737286
0.872582
0.732465
0.590246
0.450938
0.312547
0.174756
0.0417562
1.16387
1.37009
0.744059
0.86038
0.730583
0.589857
0.450844
0.312534
0.174875
0.0426188
1.17537
1.36673
0.77546
0.851024
0.728658
0.589447
0.450743
0.312518
0.174966
0.0432415
1.19339
1.34812
0.817136
0.845502
0.726865
0.589029
0.450637
0.312498
0.175026
0.043645
1.21269
1.32262
0.856309
0.842949
0.725302
0.588616
0.45053
0.312474
0.175053
0.0438427
1.22736
1.29771
0.888776
0.842094
0.723975
0.588217
0.450423
0.312445
0.175046
0.0438415
1.23412
1.27828
0.915757
0.842135
0.722847
0.587837
0.450317
0.312414
0.175005
0.0436414
1.23249
1.26662
0.938611
0.842631
0.721879
0.58748
0.450215
0.31238
0.174931
0.0432355
1.22232
1.26264
0.957378
0.843321
0.721047
0.587152
0.450119
0.312344
0.174827
0.0426105
1.20444
1.26452
0.971788
0.844005
0.720334
0.586854
0.45003
0.312309
0.174696
0.0417459
1.18281
1.26965
0.982151
0.844513
0.719717
0.586589
0.449949
0.312274
0.174543
0.0406125
1.16393
1.27582
0.989142
0.844725
0.719165
0.586354
0.449878
0.312243
0.174374
0.0391719
1.15279
1.28103
0.993395
0.844579
0.718653
0.586151
0.449818
0.312216
0.174194
0.0373598
1.1498
1.28433
0.995699
0.844111
0.718168
0.58597
0.449766
0.312197
0.174042
0.0348444
1.15087
1.28728
0.996243
0.843428
0.717774
0.585843
0.449733
0.312188
0.174133
0.0316998
0
0
0.853539
0.903891
0.738477
0.591605
0.45126
0.31256
0.173982
0.029804
0
0
0.847647
0.898419
0.737527
0.591434
0.451223
0.312552
0.173881
0.0328882
0
0
0.822172
0.895382
0.736456
0.591192
0.451168
0.312543
0.174015
0.0353448
0
0
0.826889
0.890391
0.735175
0.590911
0.451103
0.312536
0.174175
0.0371125
1.16697
1.31609
0.764294
0.881163
0.733683
0.590587
0.451026
0.312529
0.174325
0.0385199
1.16545
1.34875
0.748373
0.868998
0.731977
0.590224
0.450939
0.312518
0.174459
0.0396284
1.16525
1.36013
0.7695
0.858421
0.730152
0.589834
0.450843
0.312505
0.174572
0.0404745
1.1685
1.35489
0.805773
0.851187
0.728366
0.589428
0.450742
0.312488
0.174658
0.0410858
1.17385
1.3395
0.840995
0.847051
0.726743
0.589016
0.450635
0.312467
0.174715
0.0414823
1.17917
1.32136
0.871801
0.84501
0.725321
0.588609
0.450527
0.312442
0.174741
0.0416768
1.18302
1.3052
0.898849
0.844151
0.724078
0.588212
0.450418
0.312413
0.174733
0.0416755
1.18421
1.29284
0.922272
0.843938
0.722986
0.587833
0.450312
0.312381
0.174694
0.0414786
1.18269
1.28453
0.94212
0.844066
0.722021
0.587476
0.450208
0.312347
0.174623
0.0410797
1.1784
1.28008
0.958616
0.844347
0.721169
0.587145
0.450111
0.312312
0.174523
0.0404661
1.17175
1.27906
0.971937
0.844647
0.720415
0.586842
0.450021
0.312277
0.174398
0.0396179
1.16427
1.28052
0.982036
0.844856
0.719747
0.58657
0.449939
0.312244
0.174253
0.0385074
1.15784
1.28277
0.988954
0.844881
0.719158
0.586332
0.449868
0.312214
0.174094
0.0370983
1.15465
1.28444
0.993151
0.844641
0.718628
0.586127
0.449808
0.312188
0.173926
0.0353293
1.1554
1.28564
0.995443
0.844131
0.718136
0.585947
0.449757
0.312171
0.173785
0.0328714
1.15774
1.28775
0.995872
0.843427
0.717742
0.585821
0.449724
0.312162
0.173882
0.0297864
0
0
0.843294
0.901862
0.738129
0.591606
0.451266
0.312539
0.173705
0.0268045
0
0
0.837989
0.895705
0.737249
0.591449
0.451232
0.312531
0.173593
0.0296184
0
0
0.808811
0.891848
0.736202
0.591223
0.451179
0.312521
0.173696
0.0318787
0
0
0.811414
0.885532
0.734878
0.590942
0.451114
0.312513
0.173829
0.033556
1.17972
1.32702
0.770132
0.876064
0.733343
0.590615
0.451036
0.312503
0.17396
0.0349126
1.17794
1.34395
0.77628
0.865626
0.731656
0.59025
0.450948
0.312491
0.174081
0.0359877
1.17442
1.34499
0.80156
0.857728
0.729946
0.589858
0.450851
0.312476
0.174185
0.036812
1.16966
1.33879
0.830122
0.852623
0.72832
0.589449
0.450746
0.312457
0.174266
0.0374095
1.16434
1.33039
0.858424
0.849311
0.726812
0.589032
0.450638
0.312435
0.174319
0.0377978
1.15921
1.32125
0.885107
0.847184
0.725429
0.588618
0.450526
0.312409
0.174343
0.0379883
1.15529
1.31227
0.908792
0.84594
0.724177
0.588213
0.450415
0.31238
0.174336
0.0379871
1.15264
1.30439
0.929235
0.845301
0.723055
0.587826
0.450306
0.312348
0.174297
0.0377939
1.15124
1.29819
0.946611
0.845047
0.722056
0.58746
0.4502
0.312314
0.17423
0.0374032
1.15111
1.29382
0.961098
0.845002
0.721169
0.58712
0.4501
0.312279
0.174135
0.0368034
1.15264
1.2911
0.972837
0.845024
0.720382
0.586809
0.450008
0.312244
0.174019
0.0359769
1.15591
1.28956
0.981953
0.845003
0.719682
0.58653
0.449925
0.312212
0.173887
0.0348998
1.16002
1.28857
0.988593
0.844864
0.719061
0.586285
0.449852
0.312183
0.173746
0.0335414
1.16431
1.28773
0.992908
0.844548
0.718516
0.586077
0.449792
0.31216
0.173605
0.0318627
1.16796
1.28734
0.995272
0.844037
0.718038
0.585906
0.449743
0.312145
0.173497
0.0296012
1.17048
1.28847
0.995586
0.84336
0.717668
0.585788
0.449712
0.312137
0.173605
0.0267866
0
0
0.834716
0.902668
0.737937
0.591611
0.45127
0.312528
0.173546
0.0231887
0
0
0.831499
0.896155
0.737347
0.591486
0.451241
0.312524
0.173527
0.0248975
0
0
0.802273
0.892412
0.736416
0.591281
0.451192
0.312517
0.173581
0.0267846
0
0
0.788691
0.88375
0.735181
0.591006
0.451127
0.312508
0.173678
0.0284455
1.19138
1.332
0.789964
0.875208
0.733667
0.590674
0.451048
0.312497
0.173789
0.0297919
1.18995
1.33331
0.803367
0.866981
0.731991
0.5903
0.450958
0.312484
0.173898
0.0308574
1.18504
1.33335
0.821819
0.860064
0.730265
0.589897
0.450858
0.312468
0.173995
0.0316736
1.17732
1.33124
0.845988
0.854758
0.728574
0.589476
0.450751
0.312448
0.174072
0.0322649
1.16913
1.32684
0.871104
0.85104
0.726992
0.58905
0.45064
0.312425
0.174123
0.0326491
1.162
1.32123
0.894506
0.848554
0.725548
0.588626
0.450527
0.312398
0.174146
0.0328377
1.15651
1.31528
0.915548
0.846978
0.724246
0.588212
0.450413
0.312368
0.174138
0.0328364
1.15297
1.30955
0.934043
0.846055
0.723083
0.587815
0.450301
0.312336
0.174101
0.0326452
1.15174
1.30446
0.949947
0.845566
0.722048
0.58744
0.450193
0.312302
0.174035
0.0322584
1.15283
1.30018
0.963304
0.84533
0.721128
0.587092
0.450091
0.312267
0.173945
0.0316647
1.15616
1.29679
0.974198
0.845199
0.720313
0.586773
0.449997
0.312233
0.173835
0.0308462
1.16155
1.29424
0.982732
0.845056
0.719589
0.586488
0.449913
0.312201
0.173714
0.0297787
1.16857
1.2924
0.989024
0.844813
0.718947
0.586238
0.449839
0.312173
0.173594
0.0284306
1.17569
1.29099
0.993222
0.844428
0.718388
0.586028
0.449778
0.31215
0.173489
0.0267682
1.18038
1.29002
0.995534
0.843947
0.717939
0.585869
0.449733
0.312133
0.17343
0.02488
1.18181
1.28964
0.995878
0.843404
0.71763
0.585769
0.449706
0.312124
0.173445
0.0231705

VECTORS velocity float
0 0 0
0 0 0
0.657689 -0.027549 -0.00507912
0.613533 -0.00164173 0.000948803
0.629485 -0.000495592 0.000135424
0.634744 -0.000115323 3.45887e-05
0.635934 -2.51525e-05 8.32895e-06
0.636241 -7.85397e-06 -3.73438e-06
0.636441 1.66523e-05 -5.39356e-05
0.668128 -0.00214135 -0.00203397
0 0 0
0 0 0
-0.0690031 -0.0817436 -0.0042336
0.642226 -0.0103592 0.000773426
0.718201 -0.00202122 0.000243241
0.728903 -0.000422413 5.98696e-05
0.730855 -9.04811e-05 1.36038e-05
0.731313 -2.68024e-05 -2.58152e-06
0.732222 -2.27258e-05 -4.49279e-05
0.748238 -0.00445697 -0.00269766
0 0 0
0 0 0
0.683873 -0.139829 -0.00256829
0.690089 -0.0212683 0.000565086
0.733766 -0.00397588 0.000215238
0.743617 -0.000812706 6.08904e-05
0.745655 -0.000173551 1.44112e-05
0.746139 -4.92344e-05 -2.66969e-06
0.747027 -0.000126568 -5.67166e-05
0.758886 -0.00432417 -0.00283361
0 0 0
0 0 0
-0.0549656 -0.201132 -0.00057042
0.664677 -0.0311533 -0.000220506
0.735377 -0.00589291 0.000168906
0.746114 -0.00120561 5.73664e-05
0.748115 -0.000257753 1.38258e-05
0.748577 -7.09102e-05 -3.10974e-06
0.749288 -0.000199024 -6.91013e-05
0.760609 -0.00365249 -0.00287488
0.348582 -0.0144125 -0.0305408
0.679104 0.00867607 -0.0241436
0.685041 -0.233922 0.0114094
0.693957 -0.0414766 0.00120575
0.73793 -0.00773345 0.000238847
0.746678 -0.001574 5.58767e-05
0.748448 -0.000336326 1.25751e-05
0.748863 -8.98613e-05 -3.77407e-06
0.749411 -0.000230386 -7.52908e-05
0.760953 -0.00295332 -0.00288881
0.437939 -0.0383895 -0.0394021
0.858949 0.0189795 -0.0289255
0.848863 -0.231602 0.0171928
0.722958 -0.048305 0.00260683
0.740671 -0.00924833 0.000298079
0.747062 -0.00189514 5.15319e-05
0.748541 -0.000405511 1.07564e-05
0.748895 -0.00010501 -4.56532e-06
0.74931 -0.000230359 -7.89937e-05
0.761117 -0.00231771 -0.00289786
0.488112 -0.051841 -0.0447605
0.896403 0.0196259 -0.0271619
0.890266 -0.218082 0.0138069
0.738911 -0.0521377 0.00247151
0.742899 -0.0104045 0.000261327
0.747447 -0.00215877 4.11116e-05
0.74862 -0.000463058 8.39994e-06
0.748905 -0.000115864 -5.39404e-06
0.749215 -0.000207006 -8.12649e-05
0.761234 -0.0017425 -0.00290406
0.528396 -0.0550653 -0.0485572
0.900797 0.0171808 -0.0243201
0.896253 -0.199848 0.00823272
0.749126 -0.0536489 0.00173899
0.744981 -0.0112085 0.000189908
0.747863 -0.00235829 2.8742e-05
0.748707 -0.0005073 5.78545e-06
0.748916 -0.000122277 -6.21084e-06
0.749146 -0.000166831 -8.26712e-05
0.761319 -0.00121382 -0.00290819
0.561148 -0.0502192 -0.0514617
0.898668 0.0145437 -0.0220631
0.8949 -0.179458 0.00430634
0.757721 -0.0532727 0.00104984
0.747137 -0.0116585 0.000114551
0.748312 -0.00248869 1.61654e-05
0.748801 -0.00053701 3.06447e-06
0.748931 -0.000124342 -6.98605e-06
0.749102 -0.000115162 -8.35243e-05
0.761376 -0.000717662 -0.0029107
0.586617 -0.0391897 -0.0538652