# vtk DataFile Version 2.0
TestTestTest
ASCII

DATASET STRUCTURED_GRID
DIMENSIONS 11 21 11
POINTS 2541 float
0 0 0
0.5 0 0
1 0 0
1.5 0 0
2 0 0
2.5 0 0
3 0 0
3.5 0 0
4 0 0
4.5 0 0
5 0 0
0 0.05 0
0.5 0.05 0
1 0.05 0
1.5 0.05 0
2 0.05 0
2.5 0.05 0
3 0.05 0
3.5 0.05 0
4 0.05 0
4.5 0.05 0
5 0.05 0
0 0.1 0
0.5 0.1 0
1 0.1 0
1.5 0.1 0
2 0.1 0
2.5 0.1 0
3 0.1 0
3.5 0.1 0
4 0.1 0
4.5 0.1 0
5 0.1 0
0 0.15 0
0.5 0.15 0
1 0.15 0
1.5 0.15 0
2 0.15 0
2.5 0.15 0
3 0.15 0
3.5 0.15 0
4 0.15 0
4.5 0.15 0
5 0.15 0
0 0.2 0
0.5 0.2 0
1 0.2 0
1.5 0.2 0
2 0.2 0
2.5 0.2 0
3 0.2 0
3.5 0.2 0
4 0.2 0
4.5 0.2 0
5 0.2 0
0 0.25 0
0.5 0.25 0
1 0.25 0
1.5 0.25 0
2 0.25 0
2.5 0.25 0
3 0.25 0
3.5 0.25 0
4 0.25 0
4.5 0.25 0
5 0.25 0
0 0.3 0
0.5 0.3 0
1 0.3 0
1.5 0.3 0
2 0.3 0
2.5 0.3 0
3 0.3 0
3.5 0.3 0
4 0.3 0
4.5 0.3 0
5 0.3 0
0 0.35 0
0.5 0.35 0
1 0.35 0
1.5 0.35 0
2 0.35 0
2.5 0.35 0
3 0.35 0
3.5 0.35 0
4 0.35 0
4.5 0.35 0
5 0.35 0
0 0.4 0
0.5 0.4 0
1 0.4 0
1.5 0.4 0
2 0.4 0
2.5 0.4 0
3 0.4 0
3.5 0.4 0
4 0.4 0
4.5 0.4 0
5 0.4 0
0 0.45 0
0.5 0.45 0
1 0.45 0
1.5 0.45 0
2 0.45 0
2.5 0.45 0
3 0.45 0
3.5 0.45 0
4 0.45 0
4.5 0.45 0
5 0.45 0
0 0.5 0
0.5 0.5 0
1 0.5 0
1.5 0.5 0
2 0.5 0
2.5 0.5 0
3 0.5 0
3.5 0.5 0
4 0.5 0
4.5 0.5 0
5 0.5 0
0 0.55 0
0.5 0.55 0
1 0.55 0
1.5 0.55 0
2 0.55 0
2.5 0.55 0
3 0.55 0
3.5 0.55 0
4 0.55 0
4.5 0.55 0
5 0.55 0
0 0.6 0
0.5 0.6 0
1 0.6 0
1.5 0.6 0
2 0.6 0
2.5 0.6 0
3 0.6 0
3.5 0.6 0
4 0.6 0
4.5 0.6 0
5 0.6 0
0 0.65 0
0.5 0.65 0
1 0.65 0
1.5 0.65 0
2 0.65 0
2.5 0.65 0
3 0.65 0
3.5 0.65 0
4 0.65 0
4.5 0.65 0
5 0.65 0
0 0.7 0
0.5 0.7 0
1 0.7 0
1.5 0.7 0
2 0.7 0
2.5 0.7 0
3 0.7 0
3.5 0.7 0
4 0.7 0
4.5 0.7 0
5 0.7 0
0 0.75 0
0.5 0.75 0
1 0.75 0
1.5 0.75 0
2 0.75 0
2.5 0.75 0
3 0.75 0
3.5 0.75 0
4 0.75 0
4.5 0.75 0
5 0.75 0
0 0.8 0
0.5 0.8 0
1 0.8 0
1.5 0.8 0
2 0.8 0
2.5 0.8 0
3 0.8 0
3.5 0.8 0
4 0.8 0
4.5 0.8 0
5 0.8 0
0 0.85 0
0.5 0.85 0
1 0.85 0
1.5 0.85 0
2 0.85 0
2.5 0.85 0
3 0.85 0
3.5 0.85 0
4 0.85 0
4.5 0.85 0
5 0.85 0
0 0.9 0
0.5 0.9 0
1 0.9 0
1.5 0.9 0
2 0.9 0
2.5 0.9 0
3 0.9 0
3.5 0.9 0
4 0.9 0
4.5 0.9 0
5 0.9 0
0 0.95 0
0.5 0.95 0
1 0.95 0
1.5 0.95 0
2 0.95 0
2.5 0.95 0
3 0.95 0
3.5 0.95 0
4 0.95 0
4.5 0.95 0
5 0.95 0
0 1 0
0.5 1 0
1 1 0
1.5 1 0
2 1 0
2.5 1 0
3 1 0
3.5 1 0
4 1 0
4.5 1 0
5 1 0
0 0 0.1
0.5 0 0.1
1 0 0.1
1.5 0 0.1
2 0 0.1
2.5 0 0.1
3 0 0.1
3.5 0 0.1
4 0 0.1
4.5 0 0.1
5 0 0.1
0 0.05 0.1
0.5 0.05 0.1
1 0.05 0.1
1.5 0.05 0.1
2 0.05 0.1
2.5 0.05 0.1
3 0.05 0.1
3.5 0.05 0.1
4 0.05 0.1
4.5 0.05 0.1
5 0.05 0.1
0 0.1 0.1
0.5 0.1 0.1
1 0.1 0.1
1.5 0.1 0.1
2 0.1 0.1
2.5 0.1 0.1
3 0.1 0.1
3.5 0.1 0.1
4 0.1 0.1
4.5 0.1 0.1
5 0.1 0.1
0 0.15 0.1
0.5 0.15 0.1
1 0.15 0.1
1.5 0.15 0.1
2 0.15 0.1
2.5 0.15 0.1
3 0.15 0.1
3.5 0.15 0.1
4 0.15 0.1
4.5 0.15 0.1
5 0.15 0.1
0 0.2 0.1
0.5 0.2 0.1
1 0.2 0.1
1.5 0.2 0.1
2 0.2 0.1
2.5 0.2 0.1
3 0.2 0.1
3.5 0.2 0.1
4 0.2 0.1
4.5 0.2 0.1
5 0.2 0.1
0 0.25 0.1
0.5 0.25 0.1
1 0.25 0.1
1.5 0.25 0.1
2 0.25 0.1
2.5 0.25 0.1
3 0.25 0.1
3.5 0.25 0.1
4 0.25 0.1
4.5 0.25 0.1
5 0.25 0.1
0 0.3 0.1
0.5 0.3 0.1
1 0.3 0.1
1.5 0.3 0.1
2 0.3 0.1
2.5 0.3 0.1
3 0.3 0.1
3.5 0.3 0.1
4 0.3 0.1
4.5 0.3 0.1
5 0.3 0.1
0 0.35 0.1
0.5 0.35 0.1
1 0.35 0.1
1.5 0.35 0.1
2 0.35 0.1
2.5 0.35 0.1
3 0.35 0.1
3.5 0.35 0.1
4 0.35 0.1
4.5 0.35 0.1
5 0.35 0.1
0 0.4 0.1
0.5 0.4 0.1
1 0.4 0.1
1.5 0.4 0.1
2 0.4 0.1
2.5 0.4 0.1
3 0.4 0.1
3.5 0.4 0.1
4 0.4 0.1
4.5 0.4 0.1
5 0.4 0.1
0 0.45 0.1
0.5 0.45 0.1
1 0.45 0.1
1.5 0.45 0.1
2 0.45 0.1
2.5 0.45 0.1
3 0.45 0.1
3.5 0.45 0.1
4 0.45 0.1
4.5 0.45 0.1
5 0.45 0.1
0 0.5 0.1
0.5 0.5 0.1
1 0.5 0.1
1.5 0.5 0.1
2 0.5 0.1
2.5 0.5 0.1
3 0.5 0.1
3.5 0.5 0.1
4 0.5 0.1
4.5 0.5 0.1
5 0.5 0.1
0 0.55 0.1
0.5 0.55 0.1
1 0.55 0.1
1.5 0.55 0.1
2 0.55 0.1
2.5 0.55 0.1
3 0.55 0.1
3.5 0.55 0.1
4 0.55 0.1
4.5 0.55 0.1
5 0.55 0.1
0 0.6 0.1
0.5 0.6 0.1
1 0.6 0.1
1.5 0.6 0.1
2 0.6 0.1
2.5 0.6 0.1
3 0.6 0.1
3.5 0.6 0.1
4 0.6 0.1
4.5 0.6 0.1
5 0.6 0.1
0 0.65 0.1
0.5 0.65 0.1
1 0.65 0.1
1.5 0.65 0.1
2 0.65 0.1
2.5 0.65 0.1
3 0.65 0.1
3.5 0.65 0.1
4 0.65 0.1
4.5 0.65 0.1
5 0.65 0.1
0 0.7 0.1
0.5 0.7 0.1
1 0.7 0.1
1.5 0.7 0.1
2 0.7 0.1
2.5 0.7 0.1
3 0.7 0.1
3.5 0.7 0.1
4 0.7 0.1
4.5 0.7 0.1
5 0.7 0.1
0 0.75 0.1
0.5 0.75 0.1
1 0.75 0.1
1.5 0.75 0.1
2 0.75 0.1
2.5 0.75 0.1
3 0.75 0.1
3.5 0.75 0.1
4 0.75 0.1
4.5 0.75 0.1
5 0.75 0.1
0 0.8 0.1
0.5 0.8 0.1
1 0.8 0.1
1.5 0.8 0.1
2 0.8 0.1
2.5 0.8 0.1
3 0.8 0.1
3.5 0.8 0.1
4 0.8 0.1
4.5 0.8 0.1
5 0.8 0.1
0 0.85 0.1
0.5 0.85 0.1
1 0.85 0.1
1.5 0.85 0.1
2 0.85 0.1
2.5 0.85 0.1
3 0.85 0.1
3.5 0.85 0.1
4 0.85 0.1
4.5 0.85 0.1
5 0.85 0.1
0 0.9 0.1
0.5 0.9 0.1
1 0.9 0.1
1.5 0.9 0.1
2 0.9 0.1
2.5 0.9 0.1
3 0.9 0.1
3.5 0.9 0.1
4 0.9 0.1
4.5 0.9 0.1
5 0.9 0.1
0 0.95 0.1
0.5 0.95 0.1
1 0.95 0.1
1.5 0.95 0.1
2 0.95 0.1
2.5 0.95 0.1
3 0.95 0.1
3.5 0.95 0.1
4 0.95 0.1
4.5 0.95 0.1
5 0.95 0.1
0 1 0.1
0.5 1 0.1
1 1 0.1
1.5 1 0.1
2 1 0.1
2.5 1 0.1
3 1 0.1
3.5 1 0.1
4 1 0.1
4.5 1 0.1
5 1 0.1
0 0 0.2
0.5 0 0.2
1 0 0.2
1.5 0 0.2
2 0 0.2
2.5 0 0.2
3 0 0.2
3.5 0 0.2
4 0 0.2
4.5 0 0.2
5 0 0.2
0 0.05 0.2
0.5 0.05 0.2
1 0.05 0.2
1.5 0.05 0.2
2 0.05 0.2
2.5 0.05 0.2
3 0.05 0.2
3.5 0.05 0.2
4 0.05 0.2
4.5 0.05 0.2
5 0.05 0.2
0 0.1 0.2
0.5 0.1 0.2
1 0.1 0.2
1.5 0.1 0.2
2 0.1 0.2
2.5 0.1 0.2
3 0.1 0.2
3.5 0.1 0.2
4 0.1 0.2
4.5 0.1 0.2
5 0.1 0.2
0 0.15 0.2
0.5 0.15 0.2
1 0.15 0.2
1.5 0.15 0.2
2 0.15 0.2
2.5 0.15 0.2
3 0.15 0.2
3.5 0.15 0.2
4 0.15 0.2
4.5 0.15 0.2
5 0.15 0.2
0 0.2 0.2
0.5 0.2 0.2
1 0.2 0.2
1.5 0.2 0.2
2 0.2 0.2
2.5 0.2 0.2
3 0.2 0.2
3.5 0.2 0.2
4 0.2 0.2
4.5 0.2 0.2
5 0.2 0.2
0 0.25 0.2
0.5 0.25 0.2
1 0.25 0.2
1.5 0.25 0.2
2 0.25 0.2
2.5 0.25 0.2
3 0.25 0.2
3.5 0.25 0.2
4 0.25 0.2
4.5 0.25 0.2
5 0.25 0.2
0 0.3 0.2
0.5 0.3 0.2
1 0.3 0.2
1.5 0.3 0.2
2 0.3 0.2
2.5 0.3 0.2
3 0.3 0.2
3.5 0.3 0.2
4 0.3 0.2
4.5 0.3 0.2
5 0.3 0.2
0 0.35 0.2
0.5 0.35 0.2
1 0.35 0.2
1.5 0.35 0.2
2 0.35 0.2
2.5 0.35 0.2
3 0.35 0.2
3.5 0.35 0.2
4 0.35 0.2
4.5 0.35 0.2
5 0.35 0.2
0 0.4 0.2
0.5 0.4 0.2
1 0.4 0.2
1.5 0.4 0.2
2 0.4 0.2
2.5 0.4 0.2
3 0.4 0.2
3.5 0.4 0.2
4 0.4 0.2
4.5 0.4 0.2
5 0.4 0.2
0 0.45 0.2
0.5 0.45 0.2
1 0.45 0.2
1.5 0.45 0.2
2 0.45 0.2
2.5 0.45 0.2
3 0.45 0.2
3.5 0.45 0.2
4 0.45 0.2
4.5 0.45 0.2
5 0.45 0.2
0 0.5 0.2
0.5 0.5 0.2
1 0.5 0.2
1.5 0.5 0.2
2 0.5 0.2
2.5 0.5 0.2
3 0.5 0.2
3.5 0.5 0.2
4 0.5 0.2
4.5 0.5 0.2
5 0.5 0.2
0 0.55 0.2
0.5 0.55 0.2
1 0.55 0.2
1.5 0.55 0.2
2 0.55 0.2
2.5 0.55 0.2
3 0.55 0.2
3.5 0.55 0.2
4 0.55 0.2
4.5 0.55 0.2
5 0.55 0.2
0 0.6 0.2
0.5 0.6 0.2
1 0.6 0.2
1.5 0.6 0.2
2 0.6 0.2
2.5 0.6 0.2
3 0.6 0.2
3.5 0.6 0.2
4 0.6 0.2
4.5 0.6 0.2
5 0.6 0.2
0 0.65 0.2
0.5 0.65 0.2
1 0.65 0.2
1.5 0.65 0.2
2 0.65 0.2
2.5 0.65 0.2
3 0.65 0.2
3.5 0.65 0.2
4 0.65 0.2
4.5 0.65 0.2
5 0.65 0.2
0 0.7 0.2
0.5 0.7 0.2
1 0.7 0.2
1.5 0.7 0.2
2 0.7 0.2
2.5 0.7 0.2
3 0.7 0.2
3.5 0.7 0.2
4 0.7 0.2
4.5 0.7 0.2
5 0.7 0.2
0 0.75 0.2
0.5 0.75 0.2
1 0.75 0.2
1.5 0.75 0.2
2 0.75 0.2
2.5 0.75 0.2
3 0.75 0.2
3.5 0.75 0.2
4 0.75 0.2
4.5 0.75 0.2
5 0.75 0.2
0 0.8 0.2
0.5 0.8 0.2
1 0.8 0.2
1.5 0.8 0.2
2 0.8 0.2
2.5 0.8 0.2
3 0.8 0.2
3.5 0.8 0.2
4 0.8 0.2
4.5 0.8 0.2
5 0.8 0.2
0 0.85 0.2
0.5 0.85 0.2
1 0.85 0.2
1.5 0.85 0.2
2 0.85 0.2
2.5 0.85 0.2
3 0.85 0.2
3.5 0.85 0.2
4 0.85 0.2
4.5 0.85 0.2
5 0.85 0.2
0 0.9 0.2
0.5 0.9 0.2
1 0.9 0.2
1.5 0.9 0.2
2 0.9 0.2
2.5 0.9 0.2
3 0.9 0.2
3.5 0.9 0.2
4 0.9 0.2
4.5 0.9 0.2
5 0.9 0.2
0 0.95 0.2
0.5 0.95 0.2
1 0.95 0.2
1.5 0.95 0.2
2 0.95 0.2
2.5 0.95 0.2
3 0.95 0.2
3.5 0.95 0.2
4 0.95 0.2
4.5 0.95 0.2
5 0.95 0.2
0 1 0.2
0.5 1 0.2
1 1 0.2
1.5 1 0.2
2 1 0.2
2.5 1 0.2
3 1 0.2
3.5 1 0.2
4 1 0.2
4.5 1 0.2
5 1 0.2
0 0 0.3
0.5 0 0.3
1 0 0.3
1.5 0 0.3
2 0 0.3
2.5 0 0.3
3 0 0.3
3.5 0 0.3
4 0 0.3
4.5 0 0.3
5 0 0.3
0 0.05 0.3
0.5 0.05 0.3
1 0.05 0.3
1.5 0.05 0.3
2 0.05 0.3
2.5 0.05 0.3
3 0.05 0.3
3.5 0.05 0.3
4 0.05 0.3
4.5 0.05 0.3
5 0.05 0.3
0 0.1 0.3
0.5 0.1 0.3
1 0.1 0.3
1.5 0.1 0.3
2 0.1 0.3
2.5 0.1 0.3
3 0.1 0.3
3.5 0.1 0.3
4 0.1 0.3
4.5 0.1 0.3
5 0.1 0.3
0 0.15 0.3
0.5 0.15 0.3
1 0.15 0.3
1.5 0.15 0.3
2 0.15 0.3
2.5 0.15 0.3
3 0.15 0.3
3.5 0.15 0.3
4 0.15 0.3
4.5 0.15 0.3
5 0.15 0.3
0 0.2 0.3
0.5 0.2 0.3
1 0.2 0.3
1.5 0.2 0.3
2 0.2 0.3
2.5 0.2 0.3
3 0.2 0.3
3.5 0.2 0.3
4 0.2 0.3
4.5 0.2 0.3
5 0.2 0.3
0 0.25 0.3
0.5 0.25 0.3
1 0.25 0.3
1.5 0.25 0.3
2 0.25 0.3
2.5 0.25 0.3
3 0.25 0.3
3.5 0.25 0.3
4 0.25 0.3
4.5 0.25 0.3
5 0.25 0.3
0 0.3 0.3
0.5 0.3 0.3
1 0.3 0.3
1.5 0.3 0.3
2 0.3 0.3
2.5 0.3 0.3
3 0.3 0.3
3.5 0.3 0.3
4 0.3 0.3
4.5 0.3 0.3
5 0.3 0.3
0 0.35 0.3
0.5 0.35 0.3
1 0.35 0.3
1.5 0.35 0.3
2 0.35 0.3
2.5 0.35 0.3
3 0.35 0.3
3.5 0.35 0.3
4 0.35 0.3
4.5 0.35 0.3
5 0.35 0.3
0 0.4 0.3
0.5 0.4 0.3
1 0.4 0.3
1.5 0.4 0.3
2 0.4 0.3
2.5 0.4 0.3
3 0.4 0.3
3.5 0.4 0.3
4 0.4 0.3
4.5 0.4 0.3
5 0.4 0.3
0 0.45 0.3
0.5 0.45 0.3
1 0.45 0.3
1.5 0.45 0.3
2 0.45 0.3
2.5 0.45 0.3
3 0.45 0.3
3.5 0.45 0.3
4 0.45 0.3
4.5 0.45 0.3
5 0.45 0.3
0 0.5 0.3
0.5 0.5 0.3
1 0.5 0.3
1.5 0.5 0.3
2 0.5 0.3
2.5 0.5 0.3
3 0.5 0.3
3.5 0.5 0.3
4 0.5 0.3
4.5 0.5 0.3
5 0.5 0.3
0 0.55 0.3
0.5 0.55 0.3
1 0.55 0.3
1.5 0.55 0.3
2 0.55 0.3
2.5 0.55 0.3
3 0.55 0.3
3.5 0.55 0.3
4 0.55 0.3
4.5 0.55 0.3
5 0.55 0.3
0 0.6 0.3
0.5 0.6 0.3
1 0.6 0.3
1.5 0.6 0.3
2 0.6 0.3
2.5 0.6 0.3
3 0.6 0.3
3.5 0.6 0.3
4 0.6 0.3
4.5 0.6 0.3
5 0.6 0.3
0 0.65 0.3
0.5 0.65 0.3
1 0.65 0.3
1.5 0.65 0.3
2 0.65 0.3
2.5 0.65 0.3
3 0.65 0.3
3.5 0.65 0.3
4 0.65 0.3
4.5 0.65 0.3
5 0.65 0.3
0 0.7 0.3
0.5 0.7 0.3
1 0.7 0.3
1.5 0.7 0.3
2 0.7 0.3
2.5 0.7 0.3
3 0.7 0.3
3.5 0.7 0.3
4 0.7 0.3
4.5 0.7 0.3
5 0.7 0.3
0 0.75 0.3
0.5 0.75 0.3
1 0.75 0.3
1.5 0.75 0.3
2 0.75 0.3
2.5 0.75 0.3
3 0.75 0.3
3.5 0.75 0.3
4 0.75 0.3
4.5 0.75 0.3
5 0.75 0.3
0 0.8 0.3
0.5 0.8 0.3
1 0.8 0.3
1.5 0.8 0.3
2 0.8 0.3
2.5 0.8 0.3
3 0.8 0.3
3.5 0.8 0.3
4 0.8 0.3
4.5 0.8 0.3
5 0.8 0.3
0 0.85 0.3
0.5 0.85 0.3
1 0.85 0.3
1.5 0.85 0.3
2 0.85 0.3
2.5 0.85 0.3
3 0.85 0.3
3.5 0.85 0.3
4 0.85 0.3
4.5 0.85 0.3
5 0.85 0.3
0 0.9 0.3
0.5 0.9 0.3
1 0.9 0.3
1.5 0.9 0.3
2 0.9 0.3
2.5 0.9 0.3
3 0.9 0.3
3.5 0.9 0.3
4 0.9 0.3
4.5 0.9 0.3
5 0.9 0.3
0 0.95 0.3
0.5 0.95 0.3
1 0.95 0.3
1.5 0.95 0.3
2 0.95 0.3
2.5 0.95 0.3
3 0.95 0.3
3.5 0.95 0.3
4 0.95 0.3
4.5 0.95 0.3
5 0.95 0.3
0 1 0.3
0.5 1 0.3
1 1 0.3
1.5 1 0.3
2 1 0.3
2.5 1 0.3
3 1 0.3
3.5 1 0.3
4 1 0.3
4.5 1 0.3
5 1 0.3
0 0 0.4
[...]
CELL_DATA 2000
SCALARS pressure float 1
LOOKUP_TABLE default
0
0
0.881128
0.955096
0.781376
0.627439
0.478838
0.33164
0.18409
0.0238106
0
0
0.878276
0.948001
0.780752
0.627309
0.478807
0.331634
0.184091
0.0259373
0
0
0.844944
0.943831
0.779801
0.627108
0.47876
0.331628
0.184157
0.0280612
0
0
0.831379
0.934428
0.778609
0.626851
0.478698
0.33162
0.184263
0.0298676
1.35663
1.4894
0.835185
0.925469
0.777198
0.626548
0.478625
0.331611
0.184381
0.0313322
1.35422
1.48745
0.854406
0.917588
0.775682
0.626212
0.478542
0.331599
0.184497
0.032494
1.34799
1.48277
0.878664
0.911473
0.77416
0.625852
0.478451
0.331585
0.1846
0.0333857
1.33867
1.47559
0.907888
0.907146
0.772704
0.625479
0.478353
0.331567
0.184681
0.0340328
1.32882
1.46691
0.936643
0.904363
0.771366
0.625104
0.478252
0.331546
0.184736
0.0344538
1.3202
1.4579
0.962925
0.902729
0.770163
0.624732
0.478149
0.331521
0.18476
0.0346606
1.31344
1.44924
0.986294
0.901926
0.769092
0.624371
0.478046
0.331494
0.184753
0.0346593
1.30891
1.44135
1.00663
0.901692
0.768146
0.624026
0.477945
0.331463
0.184714
0.0344499
1.30701
1.43444
1.02396
0.901808
0.767312
0.6237
0.477848
0.33143
0.184646
0.0340264
1.30779
1.42863
1.03841
0.902096
0.766575
0.623398
0.477756
0.331397
0.184552
0.0333769
1.31113
1.4239
1.05012
0.902413
0.765922
0.623121
0.47767
0.331364
0.184437
0.0324829
1.31686
1.42024
1.05927
0.902645
0.765339
0.622871
0.477593
0.331333
0.18431
0.0313191
1.3245
1.41758
1.06602
0.902704
0.764813
0.622651
0.477525
0.331305
0.184182
0.0298527
1.33238
1.41577
1.07054
0.902536
0.76434
0.622463
0.477468
0.331282
0.184068
0.0280448
1.33784
1.4149
1.07305
0.902157
0.763934
0.622314
0.477425
0.331265
0.183996
0.0259198
1.33999
1.41487
1.07347
0.901617
0.763628
0.622213
0.477397
0.331256
0.183992
0.0237923
0
0
0.890537
0.952859
0.781377
0.627408
0.478829
0.331651
0.184264
0.0278394
0
0
0.885772
0.946387
0.780462
0.627238
0.478791
0.331642
0.18423
0.0311291
0
0
0.853724
0.942302
0.779484
0.627027
0.478742
0.331635
0.184343
0.0334911
0
0
0.859132
0.935489
0.778238
0.626769
0.478681
0.331628
0.184474
0.0353221
1.34256
1.48789
0.810934
0.925652
0.776829
0.626474
0.478609
0.33162
0.184606
0.0368058
1.3396
1.50441
0.821766
0.915515
0.775324
0.626147
0.478529
0.33161
0.184731
0.0379821
1.33429
1.49856
0.856009
0.908862
0.773848
0.625801
0.47844
0.331597
0.184839
0.0388845
1.32729
1.48607
0.891231
0.905123
0.772471
0.625443
0.478346
0.331581
0.184923
0.0395389
1.31944
1.47331
0.924702
0.902931
0.771214
0.625081
0.478249
0.331561
0.184979
0.0399644
1.31183
1.46109
0.954902
0.901763
0.770082
0.624724
0.478149
0.331537
0.185004
0.0401734
1.30589
1.44993
0.981043
0.901329
0.769072
0.624377
0.47805
0.33151
0.184997
0.0401721
1.30185
1.44025
1.00331
0.901378
0.768179
0.624044
0.477952
0.33148
0.184958
0.0399606
1.29978
1.4323
1.02201
0.90171
0.767389
0.623731
0.477857
0.331448
0.184888
0.0395327
1.29972
1.42609
1.03743
0.902162
0.76669
0.62344
0.477768
0.331415
0.184791
0.038876
1.30198
1.42143
1.0498
0.902602
0.766069
0.623172
0.477685
0.331382
0.184672
0.0379715
1.30653
1.41794
1.05934
0.902927
0.765511
0.622931
0.47761
0.33135
0.184536
0.0367932
1.31213
1.41521
1.06628
0.90306
0.765007
0.622717
0.477543
0.331322
0.184394
0.0353078
1.31782
1.41313
1.07079
0.902944
0.764551
0.622533
0.477487
0.331298
0.184256
0.0334753
1.32269
1.41218
1.07317
0.902526
0.764127
0.622376
0.477442
0.331281
0.184137
0.0311121
1.3262
1.41341
1.07341
0.901788
0.763738
0.622251
0.477408
0.331272
0.184167
0.0278215
0
0
0.901414
0.953613
0.781515
0.627383
0.47882
0.331672
0.184553
0.0309971
0
0
0.896004
0.947954
0.780563
0.627204
0.478781
0.331664
0.184531
0.0345056
0
0
0.86894
0.944846
0.779602
0.626987
0.47873
0.331658
0.184663
0.0369959
0
0
0.876243
0.939503
0.778418
0.626733
0.478669
0.331652
0.184811
0.0389003
1.32788
1.47966
0.804398
0.930009
0.777053
0.626443
0.478599
0.331646
0.184957
0.0404293
1.32472
1.51467
0.788634
0.918059
0.775529
0.626121
0.47852
0.331637
0.185091
0.0416353
1.32224
1.52167
0.819087
0.908517
0.773948
0.625778
0.478434
0.331626
0.185205
0.0425572
1.32304
1.5089
0.86575
0.903003
0.772456
0.625425
0.478342
0.331611
0.185293
0.0432242
1.32573
1.48826
0.907636
0.900631
0.771138
0.62507
0.478247
0.331592
0.185352
0.0436572
1.32842
1.46778
0.942985
0.899879
0.77
0.62472
0.478151
0.331569
0.185378
0.0438698
1.32989
1.45035
0.973064
0.899916
0.769013
0.624381
0.478054
0.331543
0.185372
0.0438686
1.32936
1.43672
0.99836
0.900377
0.76815
0.624058
0.477958
0.331513
0.185331
0.0436536
1.32714
1.42679
1.01934
0.901047
0.767394
0.623753
0.477867
0.331481
0.185259
0.0432182
1.32318
1.42024
1.03644
0.901772
0.766728
0.62347
0.477779
0.331448
0.185158
0.042549
1.31757
1.41656
1.05002
0.902434
0.766136
0.62321
0.477698
0.331415
0.185033
0.041625
1.31143
1.41486
1.06024
0.902938
0.765606
0.622975
0.477625
0.331382
0.184888
0.040417
1.30647
1.41377
1.06727
0.903207
0.765129
0.622767
0.47756
0.331353
0.184734
0.0388864
1.30487
1.41255
1.07157
0.903166
0.764689
0.622585
0.477504
0.331328
0.184578
0.0369806
1.30747
1.41192
1.07375
0.902755
0.764262
0.622426
0.477458
0.331309
0.184439
0.034489
1.31147
1.41354
1.07395
0.901981
0.763853
0.622295
0.477422
0.331299
0.184457
0.0309796
0
0
0.907163
0.955159
0.781699
0.627374
0.478815
0.331694
0.184808
0.0329962
0
0
0.902079
0.94979
0.780752
0.627194
0.478775
0.331686
0.18479
0.0365509
0
0
0.875267
0.947269
0.77982
0.626978
0.478724
0.331681
0.18493
0.0390857
0
0
0.879292
0.9426
0.778689
0.626728
0.478665
0.331677
0.185086
0.0410257
1.32036
1.4857
0.803402
0.933392
0.777377
0.626443
0.478595
0.331672
0.185238
0.0425815
1.31811
1.52491
0.775379
0.921042
0.775877
0.626127
0.478518
0.331664
0.185378
0.0438075
1.31909
1.53762
0.790412
0.909939
0.774246
0.625787
0.478433
0.331654
0.185496
0.0447438
1.32782
1.52698
0.834642
0.902511
0.772632
0.625432
0.478342
0.331639
0.185588
0.0454207
1.34321
1.50201
0.886052
0.89906
0.771183
0.625074
0.478249
0.331621
0.185649
0.0458599
1.36017
1.47374
0.929939
0.898084
0.769954
0.624723
0.478153
0.331599
0.185676
0.0460753
1.37295
1.44807
0.965047
0.898256
0.76892
0.624384
0.478058
0.331573
0.18567
0.0460742
1.37832
1.42808
0.993771
0.898962
0.768042
0.624061
0.477964
0.331544
0.185628
0.0458563
1.37604
1.41527
1.01744
0.899911
0.767288
0.623759
0.477873
0.331512
0.185555
0.0454149
1.36594
1.40929
1.03638
0.90094
0.766641
0.62348
0.477787
0.331479
0.185451
0.0447358
1.34854
1.40821
1.05075
0.90191
0.766086
0.623225
0.477707
0.331445
0.185321
0.0437975
1.3277
1.40944
1.06107
0.902678
0.765601
0.622997
0.477635
0.331412
0.185171
0.0425696
1.31005
1.41107
1.06803
0.903126
0.765159
0.622793
0.477571
0.331382
0.185009
0.041012
1.30085
1.41193
1.07224
0.903182
0.764738
0.622614
0.477515
0.331356
0.184846
0.0390706
1.30035
1.41224
1.07432
0.902814
0.76432
0.622455
0.477469
0.331336
0.184699
0.0365346
1.30362
1.41425
1.07452
0.902054
0.763912
0.622323
0.477433
0.331325
0.184713
0.032979
0
0
0.908814
0.956124
0.781822
0.627374
0.478813
0.331707
0.184951
0.0339553
0
0
0.903508
0.950863
0.780882
0.627193
0.478773
0.3317
0.184934
0.0375212
0
0
0.875909
0.94858
0.779965
0.626978
0.478722
0.331696
0.185077
0.040071
0
0
0.878625
0.944181
0.778859
0.62673
0.478663
0.331692
0.185236
0.0420249
1.31773
1.49153
0.80142
0.935106
0.777573
0.626448
0.478594
0.331687
0.185392
0.0435925
1.3162
1.53194
0.771183
0.922669
0.776093
0.626135
0.478517
0.33168
0.185534
0.0448278
1.31991
1.54575
0.781472
0.911264
0.774464
0.625798
0.478433
0.33167
0.185654
0.0457711
1.33428
1.53538
0.819121
0.903162
0.772818
0.625446
0.478344
0.331656
0.185747
0.046453
1.35742
1.50883
0.868737
0.898717
0.771288
0.625086
0.47825
0.331638
0.185809
0.0468954
1.38302
1.47674
0.917673
0.897021
0.769957
0.624728
0.478155
0.331616
0.185838
0.0471125
1.40369
1.44648
0.959344
0.896978
0.768841
0.624383
0.47806
0.331591
0.185831
0.0471113
1.41332
1.42236
0.992317
0.897793
0.767919
0.624057
0.477966
0.331562
0.185789
0.0468918
1.41086
1.40745
1.01764
0.899009
0.767166
0.623755
0.477876
0.33153
0.185714
0.0464472
1.39619
1.40176
1.03683
0.900328
0.766552
0.62348
0.477791
0.331496
0.185609
0.0457632
1.3707
1.40226
1.05115
0.901536
0.766034
0.62323
0.477712
0.331462
0.185477
0.0448178
1.34118
1.40567
1.06147
0.902471
0.765579
0.623005
0.47764
0.331429
0.185325
0.0435806
1.31586
1.40928
1.06843
0.903027
0.765157
0.622804
0.477576
0.331399
0.18516
0.0420114
1.30117
1.4115
1.07261
0.903146
0.76475
0.622626
0.477521
0.331372
0.184993
0.040056
1.29812
1.41251
1.07466
0.90281
0.764338
0.622468
0.477474
0.331352
0.184845
0.037505
1.30077
1.4148
1.07487
0.902064
0.763933
0.622336
0.477438
0.331341
0.184857
0.0339381
0
0
0.908814
0.956124
0.781822
0.627374
0.478813
0.331707
0.184951
0.0339553
0
0
0.903508
0.950863
0.780882
0.627193
0.478773
0.3317
0.184934
0.0375212
0
0
0.875909
0.94858
0.779965
0.626978
0.478722
0.331696
0.185077
0.040071
0
0
0.878625
0.944181
0.778859
0.62673
0.478663
0.331692
0.185236
0.0420249
1.31773
1.49153
0.80142
0.935106
0.777573
0.626448
0.478594
0.331687
0.185392
0.0435925
1.3162
1.53194
0.771183
0.922669
0.776093
0.626135
0.478517
0.33168
0.185534
0.0448278
1.31991
1.54575
0.781472
0.911264
0.774464
0.625798
0.478433
0.33167
0.185654
0.0457711
1.33428
1.53538
0.819121
0.903162
0.772818
0.625446
0.478344
0.331656
0.185747
0.046453
1.35742
1.50883
0.868737
0.898717
0.771288
0.625086
0.47825
0.331638
0.185809
0.0468954
1.38302
1.47674
0.917673
0.897021
0.769957
0.624728
0.478155
0.331616
0.185838
0.0471125
1.40369
1.44648
0.959344
0.896978
0.768841
0.624383
0.47806
0.331591
0.185831
0.0471113
1.41332
1.42236
0.992317
0.897793
0.767919
0.624057
0.477966
0.331562
0.185789
0.0468918
1.41086
1.40745
1.01764
0.899009
0.767166
0.623755
0.477876
0.33153
0.185714
0.0464472
1.39619
1.40176
1.03683
0.900328
0.766552
0.62348
0.477791
0.331496
0.185609
0.0457632
1.3707
1.40226
1.05115
0.901536
0.766034
0.62323
0.477712
0.331462
0.185477
0.0448178
1.34118
1.40567
1.06147
0.902471
0.765579
0.623005
0.47764
0.331429
0.185325
0.0435806
1.31586
1.40928
1.06843
0.903027
0.765157
0.622804
0.477576
0.331399
0.18516
0.0420114
1.30117
1.4115
1.07261
0.903146
0.76475
0.622626
0.477521
0.331372
0.184993
0.040056
1.29812
1.41251
1.07466
0.90281
0.764338
0.622468
0.477474
0.331352
0.184845
0.037505
1.30077
1.4148
1.07487
0.902064
0.763933
0.622336
0.477438
0.331341
0.184857
0.0339381
0
0
0.907163
0.955159
0.781699
0.627374
0.478815
0.331694
0.184808
0.0329962
0
0
0.902079
0.94979
0.780752
0.627194
0.478775
0.331686
0.18479
0.0365509
0
0
0.875267
0.947269
0.77982
0.626978
0.478724
0.331681
0.18493
0.0390857
0
0
0.879292
0.9426
0.778689
0.626728
0.478665
0.331677
0.185086
0.0410257
1.32036
1.4857
0.803402
0.933392
0.777377
0.626443
0.478595
0.331672
0.185238
0.0425815
1.31811
1.52491
0.775379
0.921042
0.775877
0.626127
0.478518
0.331664
0.185378
0.0438075
1.31909
1.53762
0.790412
0.909939
0.774246
0.625787
0.478433
0.331654
0.185496
0.0447438
1.32782
1.52698
0.834642
0.902511
0.772632
0.625432
0.478342
0.331639
0.185588
0.0454207
1.34321
1.50201
0.886052
0.89906
0.771183
0.625074
0.478249
0.331621
0.185649
0.0458599
1.36017
1.47374
0.929939
0.898084
0.769954
0.624723
0.478153
0.331599
0.185676
0.0460753
1.37295
1.44807
0.965047
0.898256
0.76892
0.624384
0.478058
0.331573
0.18567
0.0460742
1.37832
1.42808
0.993771
0.898962
0.768042
0.624061
0.477964
0.331544
0.185628
0.0458563
1.37604
1.41527
1.01744
0.899911
0.767288
0.623759
0.477873
0.331512
0.185555
0.0454149
1.36594
1.40929
1.03638
0.90094
0.766641
0.62348
0.477787
0.331479
0.185451
0.0447358
1.34854
1.40821
1.05075
0.90191
0.766086
0.623225
0.477707
0.331445
0.185321
0.0437975
1.3277
1.40944
1.06107
0.902678
0.765601
0.622997
0.477635
0.331412
0.185171
0.0425696
1.31005
1.41107
1.06803
0.903126
0.765159
0.622793
0.477571
0.331382
0.185009
0.041012
1.30085
1.41193
1.07224
0.903182
0.764738
0.622614
0.477515
0.331356
0.184846
0.0390706
1.30035
1.41224
1.07432
0.902814
0.76432
0.622455
0.477469
0.331336
0.184699
0.0365346
1.30362
1.41425
1.07452
0.902054
0.763912
0.622323
0.477433
0.331325
0.184713
0.032979
0
0
0.901414
0.953613
0.781515
0.627383
0.47882
0.331672
0.184553
0.0309971
0
0
0.896004
0.947954
0.780563
0.627204
0.478781
0.331664
0.184531
0.0345056
0
0
0.86894
0.944846
0.779602
0.626987
0.47873
0.331658
0.184663
0.0369959
0
0
0.876243
0.939503
0.778418
0.626733
0.478669
0.331652
0.184811
0.0389003
1.32788
1.47966
0.804398
0.930009
0.777053
0.626443
0.478599
0.331646
0.184957
0.0404293
1.32472
1.51467
0.788634
0.918059
0.775529
0.626121
0.47852
0.331637
0.185091
0.0416353
1.32224
1.52167
0.819087
0.908517
0.773948
0.625778
0.478434
0.331626
0.185205
0.0425572
1.32304
1.5089
0.86575
0.903003
0.772456
0.625425
0.478342
0.331611
0.185293
0.0432242
1.32573
1.48826
0.907636
0.900631
0.771138
0.62507
0.478247
0.331592
0.185352
0.0436572
1.32842
1.46778
0.942985
0.899879
0.77
0.62472
0.478151
0.331569
0.185378
0.0438698
1.32989
1.45035
0.973064
0.899916
0.769013
0.624381
0.478054
0.331543
0.185372
0.0438686
1.32936
1.43672
0.99836
0.900377
0.76815
0.624058
0.477958
0.331513
0.185331
0.0436536
1.32714
1.42679
1.01934
0.901047
0.767394
0.623753
0.477867
0.331481
0.185259
0.0432182
1.32318
1.42024
1.03644
0.901772
0.766728
0.62347
0.477779
0.331448
0.185158
0.042549
1.31757
1.41656
1.05002
0.902434
0.766136
0.62321
0.477698
0.331415
0.185033
0.041625
1.31143
1.41486
1.06024
0.902938
0.765606
0.622975
0.477625
0.331382
0.184888
0.040417
1.30647
1.41377
1.06727
0.903207
0.765129
0.622767
0.47756
0.331353
0.184734
0.0388864
1.30487
1.41255
1.07157
0.903166
0.764689
0.622585
0.477504
0.331328
0.184578
0.0369806
1.30747
1.41192
1.07375
0.902755
0.764262
0.622426
0.477458
0.331309
0.184439
0.034489
1.31147
1.41354
1.07395
0.901981
0.763853
0.622295
0.477422
0.331299
0.184457
0.0309796
0
0
0.890537
0.952859
0.781377
0.627408
0.478829
0.331651
0.184264
0.0278394
0
0
0.885772
0.946387
0.780462
0.627238
0.478791
0.331642
0.18423
0.0311291
0
0
0.853724
0.942302
0.779484
0.627027
0.478742
0.331635
0.184343
0.0334911
0
0
0.859132
0.935489
0.778238
0.626769
0.478681
0.331628
0.184474
0.0353221
1.34256
1.48789
0.810934
0.925652
0.776829
0.626474
0.478609
0.33162
0.184606
0.0368058
1.3396
1.50441
0.821766
0.915515
0.775324
0.626147
0.478529
0.33161
0.184731
0.0379821
1.33429
1.49856
0.856009
0.908862
0.773848
0.625801
0.47844
0.331597
0.184839
0.0388845
1.32729
1.48607
0.891231
0.905123
0.772471
0.625443
0.478346
0.331581
0.184923
0.0395389
1.31944
1.47331
0.924702
0.902931
0.771214
0.625081
0.478249
0.331561
0.184979
0.0399644
1.31183
1.46109
0.954902
0.901763
0.770082
0.624724
0.478149
0.331537
0.185004
0.0401734
1.30589
1.44993
0.981043
0.901329
0.769072
0.624377
0.47805
0.33151
0.184997
0.0401721
1.30185
1.44025
1.00331
0.901378
0.768179
0.624044
0.477952
0.33148
0.184958
0.0399606
1.29978
1.4323
1.02201
0.90171
0.767389
0.623731
0.477857
0.331448
0.184888
0.0395327
1.29972
1.42609
1.03743
0.902162
0.76669
0.62344
0.477768
0.331415
0.184791
0.038876
1.30198
1.42143
1.0498
0.902602
0.766069
0.623172
0.477685
0.331382
0.184672
0.0379715
1.30653
1.41794
1.05934
0.902927
0.765511
0.622931
0.47761
0.33135
0.184536
0.0367932
1.31213
1.41521
1.06628
0.90306
0.765007
0.622717
0.477543
0.331322
0.184394
0.0353078
1.31782
1.41313
1.07079
0.902944
0.764551
0.622533
0.477487
0.331298
0.184256
0.0334753
1.32269
1.41218
1.07317
0.902526
0.764127
0.622376
0.477442
0.331281
0.184137
0.0311121
1.3262
1.41341
1.07341
0.901788
0.763738
0.622251
0.477408
0.331272
0.184167
0.0278215
0
0
0.881128
0.955096
0.781376
0.627439
0.478838
0.33164
0.18409
0.0238106
0
0
0.878276
0.948001
0.780752
0.627309
0.478807
0.331634
0.184091
0.0259373
0
0
0.844944
0.943831
0.779801
0.627108
0.47876
0.331628
0.184157
0.0280612
0
0
0.831379
0.934428
0.778609
0.626851
0.478698
0.33162
0.184263
0.0298676
1.35663
1.4894
0.835185
0.925469
0.777198
0.626548
0.478625
0.331611
0.184381
0.0313322
1.35422
1.48745
0.854406
0.917588
0.775682
0.626212
0.478542
0.331599
0.184497
0.032494
1.34799
1.48277
0.878664
0.911473
0.77416
0.625852
0.478451
0.331585
0.1846
0.0333857
1.33867
1.47559
0.907888
0.907146
0.772704
0.625479
0.478353
0.331567
0.184681
0.0340328
1.32882
1.46691
0.936643
0.904363
0.771366
0.625104
0.478252
0.331546
0.184736
0.0344538
1.3202
1.4579
0.962925
0.902729
0.770163
0.624732
0.478149
0.331521
0.18476
0.0346606
1.31344
1.44924
0.986294
0.901926
0.769092
0.624371
0.478046
0.331494
0.184753
0.0346593
1.30891
1.44135
1.00663
0.901692
0.768146
0.624026
0.477945
0.331463
0.184714
0.0344499
1.30701
1.43444
1.02396
0.901808
0.767312
0.6237
0.477848
0.33143
0.184646
0.0340264
1.30779
1.42863
1.03841
0.902096
0.766575
0.623398
0.477756
0.331397
0.184552
0.0333769
1.31113
1.4239
1.05012
0.902413
0.765922
0.623121
0.47767
0.331364
0.184437
0.0324829
1.31686
1.42024
1.05927
0.902645
0.765339
0.622871
0.477593
0.331333
0.18431
0.0313191
1.3245
1.41758
1.06602
0.902704
0.764813
0.622651
0.477525
0.331305
0.184182
0.0298527
1.33238
1.41577
1.07054
0.902536
0.76434
0.622463
0.477468
0.331282
0.184068
0.0280448
1.33784
1.4149
1.07305
0.902157
0.763934
0.622314
0.477425
0.331265
0.183996
0.0259198
1.33999
1.41487
1.07347
0.901617
0.763628
0.622213
0.477397
0.331256
0.183992
0.0237923

VECTORS velocity float
0 0 0
0 0 0
0.71878 -0.0302231 -0.002861
0.650563 -0.002265 0.00105341
0.673568 -0.00062786 0.000131382
0.68048 -0.000143294 2.86122e-05
0.682057 -3.19268e-05 6.42414e-06
0.682447 -8.86639e-06 -2.94193e-06
0.68285 -4.93323e-06 -5.0077e-05
0.707581 -0.00168634 -0.00151351
0 0 0
0 0 0
-0.0996911 -0.0895134 -0.00232795
0.670137 -0.0114926 0.00084441
0.744652 -0.0022619 0.000190131
0.755528 -0.000484011 4.19257e-05
0.757677 -0.000106912 9.19941e-06
0.75819 -2.93805e-05 -2.43033e-06
0.758997 -5.18792e-05 -5.16329e-05
0.769294 -0.00338201 -0.00190491
0 0 0
0 0 0
0.742682 -0.152178 -0.000944576
0.713715 -0.0220256 0.00069996
0.754011 -0.00416019 0.000166056
0.763856 -0.000877507 4.12016e-05
0.765999 -0.000193448 9.33182e-06
0.766515 -5.24463e-05 -2.62027e-06
0.767242 -0.000124476 -5.88455e-05
0.775103 -0.00313273 -0.00196944
0 0 0
0 0 0
-0.085592 -0.21736 -5.72759e-05
0.689385 -0.0313125 3.70081e-05
0.754818 -0.00596509 0.000134978
0.764932 -0.00125882 3.82306e-05
0.766957 -0.000277676 8.76836e-06
0.767437 -7.40512e-05 -2.98675e-06
0.768025 -0.000169792 -6.46726e-05
0.775808 -0.00260941 -0.00199196
0.387951 -0.0162031 -0.0348358
0.76373 0.00835924 -0.0246927
0.744434 -0.248795 0.0114765
0.717839 -0.0408416 0.00116591
0.756986 -0.007647 0.000168211
0.765299 -0.00160816 3.56608e-05
0.767087 -0.000354851 7.85167e-06
0.767514 -9.27579e-05 -3.41555e-06
0.767982 -0.000187274 -6.76273e-05
0.775978 -0.00210647 -0.00200249
0.470835 -0.043401 -0.0431208
0.921708 0.0172231 -0.0260734
0.888572 -0.240912 0.0162283
0.742127 -0.0468646 0.00201826
0.759287 -0.00902413 0.000186279
0.765662 -0.00191054 3.14085e-05
0.767165 -0.000422321 6.62951e-06
0.767527 -0.000107887 -3.89294e-06
0.767897 -0.00018373 -6.94281e-05
0.776086 -0.00165402 -0.00200932
0.518163 -0.0591533 -0.0490298
0.941727 0.0159378 -0.0225881
0.913124 -0.22308 0.011687
0.755692 -0.0501154 0.00167934
0.761398 -0.0100775 0.000151367
0.766061 -0.00215773 2.45924e-05
0.767249 -0.000478188 5.15395e-06
0.767539 -0.000119077 -4.38576e-06
0.76783 -0.000164437 -7.05567e-05
0.776169 -0.0012445 -0.00201379
0.557013 -0.0634883 -0.0538003
0.939646 0.0121506 -0.0195767
0.913825 -0.201934 0.00664412
0.7657 -0.0512613 0.0010995
0.763535 -0.0108037 0.000105898
0.766498 -0.00234361 1.71431e-05
0.767343 -0.000520959 3.53865e-06
0.767555 -0.000126185 -4.87436e-06
0.767783 -0.000133636 -7.12733e-05
0.77623 -0.000867729 -0.00201666
0.588575 -0.0585069 -0.057698
0.935207 0.00868085 -0.0178016
0.911464 -0.179908 0.00353529
0.774428 -0.0507334 0.000645883
0.765722 -0.0112008 6.16286e-05
0.766962 -0.00246388 9.60467e-06
0.767444 -0.000549539 1.84966e-06
0.767573 -0.000129242 -5.34528e-06
0.767754 -9.48451e-05 -7.17214e-05
0.77627 -0.000513877 -0.00201837
0.61287 -0.0462207 -0.060878
0.931031 0.00654072 -0.0168733
0.908906 -0.158404 0.00158527
0.782065 -0.0488983 0.000330256
0.767877 -0.011277 2.31643e-05