# vtk DataFile Version 2.0
TestTestTest
ASCII

DATASET STRUCTURED_GRID
DIMENSIONS 11 21 11
POINTS 2541 float
0 0 0
0.5 0 0
1 0 0
1.5 0 0
2 0 0
2.5 0 0
3 0 0
3.5 0 0
4 0 0
4.5 0 0
5 0 0
0 0.05 0
0.5 0.05 0
1 0.05 0
1.5 0.05 0
2 0.05 0
2.5 0.05 0
3 0.05 0
3.5 0.05 0
4 0.05 0
4.5 0.05 0
5 0.05 0
0 0.1 0
0.5 0.1 0
1 0.1 0
1.5 0.1 0
2 0.1 0
2.5 0.1 0
3 0.1 0
3.5 0.1 0
4 0.1 0
4.5 0.1 0
5 0.1 0
0 0.15 0
0.5 0.15 0
1 0.15 0
1.5 0.15 0
2 0.15 0
2.5 0.15 0
3 0.15 0
3.5 0.15 0
4 0.15 0
4.5 0.15 0
5 0.15 0
0 0.2 0
0.5 0.2 0
1 0.2 0
1.5 0.2 0
2 0.2 0
2.5 0.2 0
3 0.2 0
3.5 0.2 0
4 0.2 0
4.5 0.2 0
5 0.2 0
0 0.25 0
0.5 0.25 0
1 0.25 0
1.5 0.25 0
2 0.25 0
2.5 0.25 0
3 0.25 0
3.5 0.25 0
4 0.25 0
4.5 0.25 0
5 0.25 0
0 0.3 0
0.5 0.3 0
1 0.3 0
1.5 0.3 0
2 0.3 0
2.5 0.3 0
3 0.3 0
3.5 0.3 0
4 0.3 0
4.5 0.3 0
5 0.3 0
0 0.35 0
0.5 0.35 0
1 0.35 0
1.5 0.35 0
2 0.35 0
2.5 0.35 0
3 0.35 0
3.5 0.35 0
4 0.35 0
4.5 0.35 0
5 0.35 0
0 0.4 0
0.5 0.4 0
1 0.4 0
1.5 0.4 0
2 0.4 0
2.5 0.4 0
3 0.4 0
3.5 0.4 0
4 0.4 0
4.5 0.4 0
5 0.4 0
0 0.45 0
0.5 0.45 0
1 0.45 0
1.5 0.45 0
2 0.45 0
2.5 0.45 0
3 0.45 0
3.5 0.45 0
4 0.45 0
4.5 0.45 0
5 0.45 0
0 0.5 0
0.5 0.5 0
1 0.5 0
1.5 0.5 0
2 0.5 0
2.5 0.5 0
3 0.5 0
3.5 0.5 0
4 0.5 0
4.5 0.5 0
5 0.5 0
0 0.55 0
0.5 0.55 0
1 0.55 0
1.5 0.55 0
2 0.55 0
2.5 0.55 0
3 0.55 0
3.5 0.55 0
4 0.55 0
4.5 0.55 0
5 0.55 0
0 0.6 0
0.5 0.6 0
1 0.6 0
1.5 0.6 0
2 0.6 0
2.5 0.6 0
3 0.6 0
3.5 0.6 0
4 0.6 0
4.5 0.6 0
5 0.6 0
0 0.65 0
0.5 0.65 0
1 0.65 0
1.5 0.65 0
2 0.65 0
2.5 0.65 0
3 0.65 0
3.5 0.65 0
4 0.65 0
4.5 0.65 0
5 0.65 0
0 0.7 0
0.5 0.7 0
1 0.7 0
1.5 0.7 0
2 0.7 0
2.5 0.7 0
3 0.7 0
3.5 0.7 0
4 0.7 0
4.5 0.7 0
5 0.7 0
0 0.75 0
0.5 0.75 0
1 0.75 0
1.5 0.75 0
2 0.75 0
2.5 0.75 0
3 0.75 0
3.5 0.75 0
4 0.75 0
4.5 0.75 0
5 0.75 0
0 0.8 0
0.5 0.8 0
1 0.8 0
1.5 0.8 0
2 0.8 0
2.5 0.8 0
3 0.8 0
3.5 0.8 0
4 0.8 0
4.5 0.8 0
5 0.8 0
0 0.85 0
0.5 0.85 0
1 0.85 0
1.5 0.85 0
2 0.85 0
2.5 0.85 0
3 0.85 0
3.5 0.85 0
4 0.85 0
4.5 0.85 0
5 0.85 0
0 0.9 0
0.5 0.9 0
1 0.9 0
1.5 0.9 0
2 0.9 0
2.5 0.9 0
3 0.9 0
3.5 0.9 0
4 0.9 0
4.5 0.9 0
5 0.9 0
0 0.95 0
0.5 0.95 0
1 0.95 0
1.5 0.95 0
2 0.95 0
2.5 0.95 0
3 0.95 0
3.5 0.95 0
4 0.95 0
4.5 0.95 0
5 0.95 0
0 1 0
0.5 1 0
1 1 0
1.5 1 0
2 1 0
2.5 1 0
3 1 0
3.5 1 0
4 1 0
4.5 1 0
5 1 0
0 0 0.1
0.5 0 0.1
1 0 0.1
1.5 0 0.1
2 0 0.1
2.5 0 0.1
3 0 0.1
3.5 0 0.1
4 0 0.1
4.5 0 0.1
5 0 0.1
0 0.05 0.1
0.5 0.05 0.1
1 0.05 0.1
1.5 0.05 0.1
2 0.05 0.1
2.5 0.05 0.1
3 0.05 0.1
3.5 0.05 0.1
4 0.05 0.1
4.5 0.05 0.1
5 0.05 0.1
0 0.1 0.1
0.5 0.1 0.1
1 0.1 0.1
1.5 0.1 0.1
2 0.1 0.1
2.5 0.1 0.1
3 0.1 0.1
3.5 0.1 0.1
4 0.1 0.1
4.5 0.1 0.1
5 0.1 0.1
0 0.15 0.1
0.5 0.15 0.1
1 0.15 0.1
1.5 0.15 0.1
2 0.15 0.1
2.5 0.15 0.1
3 0.15 0.1
3.5 0.15 0.1
4 0.15 0.1
4.5 0.15 0.1
5 0.15 0.1
0 0.2 0.1
0.5 0.2 0.1
1 0.2 0.1
1.5 0.2 0.1
2 0.2 0.1
2.5 0.2 0.1
3 0.2 0.1
3.5 0.2 0.1
4 0.2 0.1
4.5 0.2 0.1
5 0.2 0.1
0 0.25 0.1
0.5 0.25 0.1
1 0.25 0.1
1.5 0.25 0.1
2 0.25 0.1
2.5 0.25 0.1
3 0.25 0.1
3.5 0.25 0.1
4 0.25 0.1
4.5 0.25 0.1
5 0.25 0.1
0 0.3 0.1
0.5 0.3 0.1
1 0.3 0.1
1.5 0.3 0.1
2 0.3 0.1
2.5 0.3 0.1
3 0.3 0.1
3.5 0.3 0.1
4 0.3 0.1
4.5 0.3 0.1
5 0.3 0.1
0 0.35 0.1
0.5 0.35 0.1
1 0.35 0.1
1.5 0.35 0.1
2 0.35 0.1
2.5 0.35 0.1
3 0.35 0.1
3.5 0.35 0.1
4 0.35 0.1
4.5 0.35 0.1
5 0.35 0.1
0 0.4 0.1
0.5 0.4 0.1
1 0.4 0.1
1.5 0.4 0.1
2 0.4 0.1
2.5 0.4 0.1
3 0.4 0.1
3.5 0.4 0.1
4 0.4 0.1
4.5 0.4 0.1
5 0.4 0.1
0 0.45 0.1
0.5 0.45 0.1
1 0.45 0.1
1.5 0.45 0.1
2 0.45 0.1
2.5 0.45 0.1
3 0.45 0.1
3.5 0.45 0.1
4 0.45 0.1
4.5 0.45 0.1
5 0.45 0.1
0 0.5 0.1
0.5 0.5 0.1
1 0.5 0.1
1.5 0.5 0.1
2 0.5 0.1
2.5 0.5 0.1
3 0.5 0.1
3.5 0.5 0.1
4 0.5 0.1
4.5 0.5 0.1
5 0.5 0.1
0 0.55 0.1
0.5 0.55 0.1
1 0.55 0.1
1.5 0.55 0.1
2 0.55 0.1
2.5 0.55 0.1
3 0.55 0.1
3.5 0.55 0.1
4 0.55 0.1
4.5 0.55 0.1
5 0.55 0.1
0 0.6 0.1
0.5 0.6 0.1
1 0.6 0.1
1.5 0.6 0.1
2 0.6 0.1
2.5 0.6 0.1
3 0.6 0.1
3.5 0.6 0.1
4 0.6 0.1
4.5 0.6 0.1
5 0.6 0.1
0 0.65 0.1
0.5 0.65 0.1
1 0.65 0.1
1.5 0.65 0.1
2 0.65 0.1
2.5 0.65 0.1
3 0.65 0.1
3.5 0.65 0.1
4 0.65 0.1
4.5 0.65 0.1
5 0.65 0.1
0 0.7 0.1
0.5 0.7 0.1
1 0.7 0.1
1.5 0.7 0.1
2 0.7 0.1
2.5 0.7 0.1
3 0.7 0.1
3.5 0.7 0.1
4 0.7 0.1
4.5 0.7 0.1
5 0.7 0.1
0 0.75 0.1
0.5 0.75 0.1
1 0.75 0.1
1.5 0.75 0.1
2 0.75 0.1
2.5 0.75 0.1
3 0.75 0.1
3.5 0.75 0.1
4 0.75 0.1
4.5 0.75 0.1
5 0.75 0.1
0 0.8 0.1
0.5 0.8 0.1
1 0.8 0.1
1.5 0.8 0.1
2 0.8 0.1
2.5 0.8 0.1
3 0.8 0.1
3.5 0.8 0.1
4 0.8 0.1
4.5 0.8 0.1
5 0.8 0.1
0 0.85 0.1
0.5 0.85 0.1
1 0.85 0.1
1.5 0.85 0.1
2 0.85 0.1
2.5 0.85 0.1
3 0.85 0.1
3.5 0.85 0.1
4 0.85 0.1
4.5 0.85 0.1
5 0.85 0.1
0 0.9 0.1
0.5 0.9 0.1
1 0.9 0.1
1.5 0.9 0.1
2 0.9 0.1
2.5 0.9 0.1
3 0.9 0.1
3.5 0.9 0.1
4 0.9 0.1
4.5 0.9 0.1
5 0.9 0.1
0 0.95 0.1
0.5 0.95 0.1
1 0.95 0.1
1.5 0.95 0.1
2 0.95 0.1
2.5 0.95 0.1
3 0.95 0.1
3.5 0.95 0.1
4 0.95 0.1
4.5 0.95 0.1
5 0.95 0.1
0 1 0.1
0.5 1 0.1
1 1 0.1
1.5 1 0.1
2 1 0.1
2.5 1 0.1
3 1 0.1
3.5 1 0.1
4 1 0.1
4.5 1 0.1
5 1 0.1
0 0 0.2
0.5 0 0.2
1 0 0.2
1.5 0 0.2
2 0 0.2
2.5 0 0.2
3 0 0.2
3.5 0 0.2
4 0 0.2
4.5 0 0.2
5 0 0.2
0 0.05 0.2
0.5 0.05 0.2
1 0.05 0.2
1.5 0.05 0.2
2 0.05 0.2
2.5 0.05 0.2
3 0.05 0.2
3.5 0.05 0.2
4 0.05 0.2
4.5 0.05 0.2
5 0.05 0.2
0 0.1 0.2
0.5 0.1 0.2
1 0.1 0.2
1.5 0.1 0.2
2 0.1 0.2
2.5 0.1 0.2
3 0.1 0.2
3.5 0.1 0.2
4 0.1 0.2
4.5 0.1 0.2
5 0.1 0.2
0 0.15 0.2
0.5 0.15 0.2
1 0.15 0.2
1.5 0.15 0.2
2 0.15 0.2
2.5 0.15 0.2
3 0.15 0.2
3.5 0.15 0.2
4 0.15 0.2
4.5 0.15 0.2
5 0.15 0.2
0 0.2 0.2
0.5 0.2 0.2
1 0.2 0.2
1.5 0.2 0.2
2 0.2 0.2
2.5 0.2 0.2
3 0.2 0.2
3.5 0.2 0.2
4 0.2 0.2
4.5 0.2 0.2
5 0.2 0.2
0 0.25 0.2
0.5 0.25 0.2
1 0.25 0.2
1.5 0.25 0.2
2 0.25 0.2
2.5 0.25 0.2
3 0.25 0.2
3.5 0.25 0.2
4 0.25 0.2
4.5 0.25 0.2
5 0.25 0.2
0 0.3 0.2
0.5 0.3 0.2
1 0.3 0.2
1.5 0.3 0.2
2 0.3 0.2
2.5 0.3 0.2
3 0.3 0.2
3.5 0.3 0.2
4 0.3 0.2
4.5 0.3 0.2
5 0.3 0.2
0 0.35 0.2
0.5 0.35 0.2
1 0.35 0.2
1.5 0.35 0.2
2 0.35 0.2
2.5 0.35 0.2
3 0.35 0.2
3.5 0.35 0.2
4 0.35 0.2
4.5 0.35 0.2
5 0.35 0.2
0 0.4 0.2
0.5 0.4 0.2
1 0.4 0.2
1.5 0.4 0.2
2 0.4 0.2
2.5 0.4 0.2
3 0.4 0.2
3.5 0.4 0.2
4 0.4 0.2
4.5 0.4 0.2
5 0.4 0.2
0 0.45 0.2
0.5 0.45 0.2
1 0.45 0.2
1.5 0.45 0.2
2 0.45 0.2
2.5 0.45 0.2
3 0.45 0.2
3.5 0.45 0.2
4 0.45 0.2
4.5 0.45 0.2
5 0.45 0.2
0 0.5 0.2
0.5 0.5 0.2
1 0.5 0.2
1.5 0.5 0.2
2 0.5 0.2
2.5 0.5 0.2
3 0.5 0.2
3.5 0.5 0.2
4 0.5 0.2
4.5 0.5 0.2
5 0.5 0.2
0 0.55 0.2
0.5 0.55 0.2
1 0.55 0.2
1.5 0.55 0.2
2 0.55 0.2
2.5 0.55 0.2
3 0.55 0.2
3.5 0.55 0.2
4 0.55 0.2
4.5 0.55 0.2
5 0.55 0.2
0 0.6 0.2
0.5 0.6 0.2
1 0.6 0.2
1.5 0.6 0.2
2 0.6 0.2
2.5 0.6 0.2
3 0.6 0.2
3.5 0.6 0.2
4 0.6 0.2
4.5 0.6 0.2
5 0.6 0.2
0 0.65 0.2
0.5 0.65 0.2
1 0.65 0.2
1.5 0.65 0.2
2 0.65 0.2
2.5 0.65 0.2
3 0.65 0.2
3.5 0.65 0.2
4 0.65 0.2
4.5 0.65 0.2
5 0.65 0.2
0 0.7 0.2
0.5 0.7 0.2
1 0.7 0.2
1.5 0.7 0.2
2 0.7 0.2
2.5 0.7 0.2
3 0.7 0.2
3.5 0.7 0.2
4 0.7 0.2
4.5 0.7 0.2
5 0.7 0.2
0 0.75 0.2
0.5 0.75 0.2
1 0.75 0.2
1.5 0.75 0.2
2 0.75 0.2
2.5 0.75 0.2
3 0.75 0.2
3.5 0.75 0.2
4 0.75 0.2
4.5 0.75 0.2
5 0.75 0.2
0 0.8 0.2
0.5 0.8 0.2
1 0.8 0.2
1.5 0.8 0.2
2 0.8 0.2
2.5 0.8 0.2
3 0.8 0.2
3.5 0.8 0.2
4 0.8 0.2
4.5 0.8 0.2
5 0.8 0.2
0 0.85 0.2
0.5 0.85 0.2
1 0.85 0.2
1.5 0.85 0.2
2 0.85 0.2
2.5 0.85 0.2
3 0.85 0.2
3.5 0.85 0.2
4 0.85 0.2
4.5 0.85 0.2
5 0.85 0.2
0 0.9 0.2
0.5 0.9 0.2
1 0.9 0.2
1.5 0.9 0.2
2 0.9 0.2
2.5 0.9 0.2
3 0.9 0.2
3.5 0.9 0.2
4 0.9 0.2
4.5 0.9 0.2
5 0.9 0.2
0 0.95 0.2
0.5 0.95 0.2
1 0.95 0.2
1.5 0.95 0.2
2 0.95 0.2
2.5 0.95 0.2
3 0.95 0.2
3.5 0.95 0.2
4 0.95 0.2
4.5 0.95 0.2
5 0.95 0.2
0 1 0.2
0.5 1 0.2
1 1 0.2
1.5 1 0.2
2 1 0.2
2.5 1 0.2
3 1 0.2
3.5 1 0.2
4 1 0.2
4.5 1 0.2
5 1 0.2
0 0 0.3
0.5 0 0.3
1 0 0.3
1.5 0 0.3
2 0 0.3
2.5 0 0.3
3 0 0.3
3.5 0 0.3
4 0 0.3
4.5 0 0.3
5 0 0.3
0 0.05 0.3
0.5 0.05 0.3
1 0.05 0.3
1.5 0.05 0.3
2 0.05 0.3
2.5 0.05 0.3
3 0.05 0.3
3.5 0.05 0.3
4 0.05 0.3
4.5 0.05 0.3
5 0.05 0.3
0 0.1 0.3
0.5 0.1 0.3
1 0.1 0.3
1.5 0.1 0.3
2 0.1 0.3
2.5 0.1 0.3
3 0.1 0.3
3.5 0.1 0.3
4 0.1 0.3
4.5 0.1 0.3
5 0.1 0.3
0 0.15 0.3
0.5 0.15 0.3
1 0.15 0.3
1.5 0.15 0.3
2 0.15 0.3
2.5 0.15 0.3
3 0.15 0.3
3.5 0.15 0.3
4 0.15 0.3
4.5 0.15 0.3
5 0.15 0.3
0 0.2 0.3
0.5 0.2 0.3
1 0.2 0.3
1.5 0.2 0.3
2 0.2 0.3
2.5 0.2 0.3
3 0.2 0.3
3.5 0.2 0.3
4 0.2 0.3
4.5 0.2 0.3
5 0.2 0.3
0 0.25 0.3
0.5 0.25 0.3
1 0.25 0.3
1.5 0.25 0.3
2 0.25 0.3
2.5 0.25 0.3
3 0.25 0.3
3.5 0.25 0.3
4 0.25 0.3
4.5 0.25 0.3
5 0.25 0.3
0 0.3 0.3
0.5 0.3 0.3
1 0.3 0.3
1.5 0.3 0.3
2 0.3 0.3
2.5 0.3 0.3
3 0.3 0.3
3.5 0.3 0.3
4 0.3 0.3
4.5 0.3 0.3
5 0.3 0.3
0 0.35 0.3
0.5 0.35 0.3
1 0.35 0.3
1.5 0.35 0.3
2 0.35 0.3
2.5 0.35 0.3
3 0.35 0.3
3.5 0.35 0.3
4 0.35 0.3
4.5 0.35 0.3
5 0.35 0.3
0 0.4 0.3
0.5 0.4 0.3
1 0.4 0.3
1.5 0.4 0.3
2 0.4 0.3
2.5 0.4 0.3
3 0.4 0.3
3.5 0.4 0.3
4 0.4 0.3
4.5 0.4 0.3
5 0.4 0.3
0 0.45 0.3
0.5 0.45 0.3
1 0.45 0.3
1.5 0.45 0.3
2 0.45 0.3
2.5 0.45 0.3
3 0.45 0.3
3.5 0.45 0.3
4 0.45 0.3
4.5 0.45 0.3
5 0.45 0.3
0 0.5 0.3
0.5 0.5 0.3
1 0.5 0.3
1.5 0.5 0.3
2 0.5 0.3
2.5 0.5 0.3
3 0.5 0.3
3.5 0.5 0.3
4 0.5 0.3
4.5 0.5 0.3
5 0.5 0.3
0 0.55 0.3
0.5 0.55 0.3
1 0.55 0.3
1.5 0.55 0.3
2 0.55 0.3
2.5 0.55 0.3
3 0.55 0.3
3.5 0.55 0.3
4 0.55 0.3
4.5 0.55 0.3
5 0.55 0.3
0 0.6 0.3
0.5 0.6 0.3
1 0.6 0.3
1.5 0.6 0.3
2 0.6 0.3
2.5 0.6 0.3
3 0.6 0.3
3.5 0.6 0.3
4 0.6 0.3
4.5 0.6 0.3
5 0.6 0.3
0 0.65 0.3
0.5 0.65 0.3
1 0.65 0.3
1.5 0.65 0.3
2 0.65 0.3
2.5 0.65 0.3
3 0.65 0.3
3.5 0.65 0.3
4 0.65 0.3
4.5 0.65 0.3
5 0.65 0.3
0 0.7 0.3
0.5 0.7 0.3
1 0.7 0.3
1.5 0.7 0.3
2 0.7 0.3
2.5 0.7 0.3
3 0.7 0.3
3.5 0.7 0.3
4 0.7 0.3
4.5 0.7 0.3
5 0.7 0.3
0 0.75 0.3
0.5 0.75 0.3
1 0.75 0.3
1.5 0.75 0.3
2 0.75 0.3
2.5 0.75 0.3
3 0.75 0.3
3.5 0.75 0.3
4 0.75 0.3
4.5 0.75 0.3
5 0.75 0.3
0 0.8 0.3
0.5 0.8 0.3
1 0.8 0.3
1.5 0.8 0.3
2 0.8 0.3
2.5 0.8 0.3
3 0.8 0.3
3.5 0.8 0.3
4 0.8 0.3
4.5 0.8 0.3
5 0.8 0.3
0 0.85 0.3
0.5 0.85 0.3
1 0.85 0.3
1.5 0.85 0.3
2 0.85 0.3
2.5 0.85 0.3
3 0.85 0.3
3.5 0.85 0.3
4 0.85 0.3
4.5 0.85 0.3
5 0.85 0.3
0 0.9 0.3
0.5 0.9 0.3
1 0.9 0.3
1.5 0.9 0.3
2 0.9 0.3
2.5 0.9 0.3
3 0.9 0.3
3.5 0.9 0.3
4 0.9 0.3
4.5 0.9 0.3
5 0.9 0.3
0 0.95 0.3
0.5 0.95 0.3
1 0.95 0.3
1.5 0.95 0.3
2 0.95 0.3
2.5 0.95 0.3
3 0.95 0.3
3.5 0.95 0.3
4 0.95 0.3
4.5 0.95 0.3
5 0.95 0.3
0 1 0.3
0.5 1 0.3
1 1 0.3
1.5 1 0.3
2 1 0.3
2.5 1 0.3
3 1 0.3
3.5 1 0.3
4 1 0.3
4.5 1 0.3
5 1 0.3
0 0 0.4
[...]
CELL_DATA 2000
SCALARS pressure float 1
LOOKUP_TABLE default
0
0
0.906099
1.0017
0.821642
0.660982
0.504651
0.349439
0.193732
0.0242319
0
0
0.904356
0.994015
0.820988
0.66085
0.504621
0.349434
0.193757
0.0267765
0
0
0.867025
0.989475
0.820053
0.660664
0.504577
0.349429
0.193843
0.0291303
0
0
0.855456
0.979271
0.818939
0.660437
0.504522
0.349423
0.193963
0.0310945
1.57438
1.70932
0.864127
0.970007
0.817681
0.660178
0.504459
0.349417
0.194094
0.03269
1.57054
1.70065
0.892288
0.962844
0.816392
0.659895
0.504387
0.349409
0.194222
0.0339583
1.56243
1.6872
0.926389
0.958004
0.815156
0.659599
0.50431
0.349399
0.194334
0.0349335
1.55086
1.67159
0.963543
0.955136
0.814027
0.659298
0.504229
0.349385
0.194423
0.035642
1.53865
1.65572
0.998571
0.953797
0.813034
0.658998
0.504144
0.349368
0.194484
0.0361034
1.5278
1.6407
1.03017
0.95356
0.812178
0.658705
0.504059
0.349348
0.194511
0.0363303
1.51907
1.62707
1.05799
0.954077
0.81145
0.658424
0.503974
0.349324
0.194505
0.0363291
1.51292
1.61502
1.08201
0.955063
0.810833
0.658157
0.50389
0.349297
0.194464
0.0360998
1.50983
1.60463
1.10237
0.956286
0.810309
0.657906
0.503809
0.349267
0.194392
0.0356361
1.50991
1.59587
1.11927
0.957557
0.809857
0.657673
0.503732
0.349236
0.194291
0.0349253
1.51296
1.58871
1.13296
0.958728
0.809458
0.657459
0.503661
0.349205
0.194167
0.0339481
1.51876
1.58309
1.14368
0.95968
0.809094
0.657264
0.503596
0.349176
0.19403
0.0326779
1.52678
1.57901
1.15163
0.960323
0.80875
0.657089
0.503538
0.349149
0.193889
0.0310808
1.53519
1.57639
1.15702
0.960593
0.808416
0.656935
0.503489
0.349126
0.193762
0.0291151
1.54126
1.57531
1.16005
0.960474
0.808092
0.656805
0.503449
0.349109
0.193671
0.0267602
1.54415
1.5755
1.16069
0.960002
0.807804
0.656708
0.503421
0.3491
0.193642
0.0242148
0
0
0.915277
0.998005
0.821435
0.660921
0.504637
0.34945
0.193929
0.0287086
0
0
0.911856
0.991334
0.820569
0.660758
0.5046
0.349443
0.193958
0.0322245
0
0
0.876
0.987095
0.81966
0.660569
0.504556
0.349439
0.194074
0.0347216
0
0
0.887088
0.979598
0.818537
0.660346
0.504503
0.349435
0.19421
0.0367272
1.55814
1.72088
0.826864
0.969117
0.817304
0.660095
0.504441
0.34943
0.19435
0.0383506
1.55359
1.73136
0.849907
0.959754
0.816044
0.659825
0.504373
0.349423
0.194484
0.0396375
1.54606
1.70951
0.898482
0.955144
0.814868
0.659543
0.504299
0.349414
0.1946
0.040625
1.53636
1.68635
0.944429
0.953188
0.813818
0.659258
0.504221
0.349402
0.194691
0.0413415
1.52531
1.66572
0.98627
0.952563
0.812905
0.658974
0.50414
0.349386
0.194752
0.0418076
1.51435
1.64766
1.02253
0.95285
0.812123
0.658697
0.504059
0.349366
0.194781
0.0420368
1.50555
1.63189
1.05342
0.95375
0.811459
0.658431
0.503977
0.349343
0.194775
0.0420356
1.49945
1.61831
1.07949
0.955015
0.810898
0.658179
0.503897
0.349317
0.194734
0.0418042
1.49622
1.60682
1.10121
0.956441
0.810422
0.657942
0.50382
0.349288
0.19466
0.0413358
1.49596
1.59726
1.11901
0.95786
0.81001
0.657721
0.503746
0.349257
0.194558
0.0406172
1.49883
1.58944
1.13326
0.959137
0.809644
0.657517
0.503678
0.349226
0.194431
0.0396278
1.50454
1.58308
1.14426
0.960165
0.809307
0.657331
0.503615
0.349197
0.194288
0.0383391
1.51131
1.57806
1.15231
0.960862
0.808984
0.657163
0.503559
0.349169
0.194139
0.0367141
1.51789
1.57451
1.15765
0.961171
0.808667
0.657014
0.50351
0.349146
0.193996
0.0347071
1.5236
1.57277
1.16048
0.961032
0.80834
0.656882
0.50347
0.349129
0.193874
0.0322088
1.52786
1.57369
1.16087
0.960376
0.807981
0.656764
0.503437
0.349118
0.193841
0.0286919
0
0
0.925622
0.997235
0.821371
0.660874
0.504625
0.349472
0.194232
0.0320352
0
0
0.921213
0.991514
0.820497
0.660706
0.504587
0.349466
0.19427
0.0357057
0
0
0.89188
0.988391
0.819628
0.660518
0.504543
0.349462
0.194397
0.038293
0
0
0.904568
0.982514
0.818576
0.660301
0.504491
0.349459
0.194544
0.0403576
1.54194
1.71859
0.815038
0.972355
0.817385
0.660057
0.50443
0.349455
0.194693
0.0420196
1.53681
1.75468
0.803244
0.960758
0.816103
0.659793
0.504364
0.34945
0.194832
0.0433323
1.53171
1.74525
0.855629
0.953159
0.814846
0.659517
0.504292
0.349442
0.194952
0.044337
1.52968
1.7155
0.917831
0.950435
0.813736
0.659238
0.504217
0.34943
0.195046
0.0450646
1.5292
1.68641
0.968982
0.950277
0.812809
0.658962
0.504139
0.349415
0.195109
0.0455374
1.52846
1.66144
1.0113
0.951135
0.812044
0.658694
0.50406
0.349397
0.195139
0.0457698
1.52661
1.64072
1.04646
0.95252
0.811411
0.658437
0.503981
0.349374
0.195133
0.0457687
1.52355
1.62386
1.07554
0.954178
0.810884
0.658193
0.503904
0.349348
0.195091
0.0455342
1.52018
1.61038
1.09938
0.955916
0.810441
0.657965
0.503829
0.34932
0.195016
0.0450592
1.51649
1.59987
1.11866
0.957583
0.810062
0.657753
0.503758
0.34929
0.194911
0.0443295
1.51193
1.59184
1.13389
0.959054
0.809725
0.657557
0.503691
0.349259
0.19478
0.0433229
1.50693
1.58565
1.14541
0.960237
0.809414
0.657377
0.50363
0.349229
0.194632
0.0420084
1.50286
1.58048
1.1535
0.961061
0.809117
0.657215
0.503576
0.349201
0.194475
0.0403449
1.50203
1.57619
1.15862
0.961449
0.808817
0.657069
0.503528
0.349177
0.194321
0.038279
1.50586
1.5737
1.16125
0.961332
0.808493
0.656937
0.503488
0.349158
0.194188
0.0356904
1.51124
1.57438
1.16151
0.960654
0.808124
0.656815
0.503454
0.349147
0.194146
0.0320191
0
0
0.930092
0.997789
0.821403
0.660849
0.504618
0.349494
0.194494
0.0341237
0
0
0.925549
0.992379
0.820541
0.660681
0.50458
0.349489
0.194535
0.0378264
0
0
0.895792
0.989831
0.819704
0.660495
0.504536
0.349486
0.194667
0.0404474
0
0
0.903926
0.984685
0.818701
0.660282
0.504484
0.349483
0.194818
0.0425405
1.53382
1.73153
0.810315
0.974883
0.817562
0.660044
0.504425
0.34948
0.194972
0.0442248
1.5291
1.77304
0.784379
0.962873
0.816309
0.659786
0.50436
0.349476
0.195115
0.0455544
1.52692
1.76993
0.821532
0.953774
0.815011
0.659514
0.50429
0.349468
0.195238
0.0465714
1.53226
1.7398
0.88882
0.949498
0.813804
0.659236
0.504216
0.349458
0.195334
0.0473075
1.54435
1.70486
0.950932
0.948762
0.812792
0.65896
0.50414
0.349443
0.195399
0.0477856
1.55838
1.67308
1.00029
0.949603
0.811978
0.658693
0.504062
0.349425
0.195429
0.0480205
1.56863
1.64555
1.0398
0.951127
0.811323
0.658438
0.503985
0.349403
0.195423
0.0480194
1.57199
1.62333
1.072
0.952978
0.810792
0.658197
0.503909
0.349378
0.195381
0.0477824
1.56856
1.60735
1.0982
0.954934
0.810357
0.657973
0.503836
0.349349
0.195305
0.0473022
1.55823
1.59719
1.11902
0.956844
0.809997
0.657765
0.503766
0.349319
0.195197
0.0465641
1.54108
1.59095
1.1349
0.958584
0.809695
0.657574
0.503701
0.349288
0.195064
0.0455452
1.52072
1.58635
1.14647
0.960015
0.809425
0.657401
0.503641
0.349258
0.194912
0.0442139
1.50381
1.58215
1.15446
0.961013
0.809161
0.657243
0.503587
0.34923
0.19475
0.042528
1.49581
1.5782
1.15945
0.961502
0.808881
0.6571
0.50354
0.349205
0.194592
0.0404336
1.49712
1.57549
1.16195
0.961435
0.808568
0.65697
0.503499
0.349186
0.194454
0.0378115
1.50238
1.57604
1.16214
0.960771
0.808201
0.656847
0.503465
0.349174
0.194409
0.0341078
0
0
0.930786
0.99826
0.821444
0.660839
0.504615
0.349508
0.194641
0.0351223
0
0
0.925724
0.992952
0.820589
0.660671
0.504577
0.349502
0.194682
0.038833
0
0
0.894627
0.990614
0.819768
0.660487
0.504533
0.3495
0.194816
0.0414651
0
0
0.900925
0.98573
0.818789
0.660276
0.504482
0.349498
0.19497
0.0435691
1.531
1.74088
0.805755
0.976107
0.817674
0.660041
0.504424
0.349495
0.195125
0.045263
1.5267
1.78385
0.777903
0.964079
0.816442
0.659786
0.504359
0.349491
0.19527
0.0466004
1.5269
1.7821
0.810436
0.95478
0.815157
0.659518
0.50429
0.349484
0.195394
0.0476233
1.53753
1.7519
0.873178
0.950051
0.813934
0.659243
0.504217
0.349474
0.195492
0.0483636
1.55711
1.71469
0.93704
0.948643
0.812864
0.658966
0.504141
0.34946
0.195557
0.0488445
1.57996
1.67907
0.991732
0.948936
0.811971
0.658695
0.504064
0.349442
0.195588
0.0490807
1.59874
1.64738
1.03596
0.950173
0.81125
0.658436
0.503987
0.34942
0.195582
0.0490796
1.60697
1.62151
1.07098
0.951982
0.810683
0.658193
0.503912
0.349395
0.19554
0.0488413
1.60344
1.60391
1.09841
0.954099
0.810252
0.65797
0.503839
0.349367
0.195463
0.0483584
1.58804
1.59431
1.11953
0.956265
0.809923
0.657766
0.50377
0.349336
0.195354
0.0476161
1.56211
1.58941
1.13543
0.958233
0.809656
0.65758
0.503705
0.349306
0.19522
0.0465913
1.53269
1.58625
1.14701
0.959825
0.809413
0.65741
0.503646
0.349275
0.195066
0.0452522
1.50817
1.58302
1.15497
0.96093
0.809168
0.657255
0.503593
0.349247
0.194902
0.0435569
1.49497
1.57948
1.15991
0.961485
0.808901
0.657114
0.503546
0.349222
0.194742
0.0414515
1.49408
1.57676
1.16235
0.961452
0.808595
0.656985
0.503506
0.349203
0.194602
0.0388183
1.49909
1.57729
1.16251
0.960801
0.808231
0.656863
0.503472
0.349191
0.194556
0.0351066
0
0
0.930786
0.99826
0.821444
0.660839
0.504615
0.349508
0.194641
0.0351223
0
0
0.925724
0.992952
0.820589
0.660671
0.504577
0.349502
0.194682
0.038833
0
0
0.894627
0.990614
0.819768
0.660487
0.504533
0.3495
0.194816
0.0414651
0
0
0.900925
0.98573
0.818789
0.660276
0.504482
0.349498
0.19497
0.0435691
1.531
1.74088
0.805755
0.976107
0.817674
0.660041
0.504424
0.349495
0.195125
0.045263
1.5267
1.78385
0.777903
0.964079
0.816442
0.659786
0.504359
0.349491
0.19527
0.0466004
1.5269
1.7821
0.810436
0.95478
0.815157
0.659518
0.50429
0.349484
0.195394
0.0476233
1.53753
1.7519
0.873178
0.950051
0.813934
0.659243
0.504217
0.349474
0.195492
0.0483636
1.55711
1.71469
0.93704
0.948643
0.812864
0.658966
0.504141
0.34946
0.195557
0.0488445
1.57996
1.67907
0.991732
0.948936
0.811971
0.658695
0.504064
0.349442
0.195588
0.0490807
1.59874
1.64738
1.03596
0.950173
0.81125
0.658436
0.503987
0.34942
0.195582
0.0490796
1.60697
1.62151
1.07098
0.951982
0.810683
0.658193
0.503912
0.349395
0.19554
0.0488413
1.60344
1.60391
1.09841
0.954099
0.810252
0.65797
0.503839
0.349367
0.195463
0.0483584
1.58804
1.59431
1.11953
0.956265
0.809923
0.657766
0.50377
0.349336
0.195354
0.0476161
1.56211
1.58941
1.13543
0.958233
0.809656
0.65758
0.503705
0.349306
0.19522
0.0465913
1.53269
1.58625
1.14701
0.959825
0.809413
0.65741
0.503646
0.349275
0.195066
0.0452522
1.50817
1.58302
1.15497
0.96093
0.809168
0.657255
0.503593
0.349247
0.194902
0.0435569
1.49497
1.57948
1.15991
0.961485
0.808901
0.657114
0.503546
0.349222
0.194742
0.0414515
1.49408
1.57676
1.16235
0.961452
0.808595
0.656985
0.503506
0.349203
0.194602
0.0388183
1.49909
1.57729
1.16251
0.960801
0.808231
0.656863
0.503472
0.349191
0.194556
0.0351066
0
0
0.930092
0.997789
0.821403
0.660849
0.504618
0.349494
0.194494
0.0341237
0
0
0.925549
0.992379
0.820541
0.660681
0.50458
0.349489
0.194535
0.0378264
0
0
0.895792
0.989831
0.819704
0.660495
0.504536
0.349486
0.194667
0.0404474
0
0
0.903926
0.984685
0.818701
0.660282
0.504484
0.349483
0.194818
0.0425405
1.53382
1.73153
0.810315
0.974883
0.817562
0.660044
0.504425
0.34948
0.194972
0.0442248
1.5291
1.77304
0.784379
0.962873
0.816309
0.659786
0.50436
0.349476
0.195115
0.0455544
1.52692
1.76993
0.821532
0.953774
0.815011
0.659514
0.50429
0.349468
0.195238
0.0465714
1.53226
1.7398
0.88882
0.949498
0.813804
0.659236
0.504216
0.349458
0.195334
0.0473075
1.54435
1.70486
0.950932
0.948762
0.812792
0.65896
0.50414
0.349443
0.195399
0.0477856
1.55838
1.67308
1.00029
0.949603
0.811978
0.658693
0.504062
0.349425
0.195429
0.0480205
1.56863
1.64555
1.0398
0.951127
0.811323
0.658438
0.503985
0.349403
0.195423
0.0480194
1.57199
1.62333
1.072
0.952978
0.810792
0.658197
0.503909
0.349378
0.195381
0.0477824
1.56856
1.60735
1.0982
0.954934
0.810357
0.657973
0.503836
0.349349
0.195305
0.0473022
1.55823
1.59719
1.11902
0.956844
0.809997
0.657765
0.503766
0.349319
0.195197
0.0465641
1.54108
1.59095
1.1349
0.958584
0.809695
0.657574
0.503701
0.349288
0.195064
0.0455452
1.52072
1.58635
1.14647
0.960015
0.809425
0.657401
0.503641
0.349258
0.194912
0.0442139
1.50381
1.58215
1.15446
0.961013
0.809161
0.657243
0.503587
0.34923
0.19475
0.042528
1.49581
1.5782
1.15945
0.961502
0.808881
0.6571
0.50354
0.349205
0.194592
0.0404336
1.49712
1.57549
1.16195
0.961435
0.808568
0.65697
0.503499
0.349186
0.194454
0.0378115
1.50238
1.57604
1.16214
0.960771
0.808201
0.656847
0.503465
0.349174
0.194409
0.0341078
0
0
0.925622
0.997235
0.821371
0.660874
0.504625
0.349472
0.194232
0.0320352
0
0
0.921213
0.991514
0.820497
0.660706
0.504587
0.349466
0.19427
0.0357057
0
0
0.89188
0.988391
0.819628
0.660518
0.504543
0.349462
0.194397
0.038293
0
0
0.904568
0.982514
0.818576
0.660301
0.504491
0.349459
0.194544
0.0403576
1.54194
1.71859
0.815038
0.972355
0.817385
0.660057
0.50443
0.349455
0.194693
0.0420196
1.53681
1.75468
0.803244
0.960758
0.816103
0.659793
0.504364
0.34945
0.194832
0.0433323
1.53171
1.74525
0.855629
0.953159
0.814846
0.659517
0.504292
0.349442
0.194952
0.044337
1.52968
1.7155
0.917831
0.950435
0.813736
0.659238
0.504217
0.34943
0.195046
0.0450646
1.5292
1.68641
0.968982
0.950277
0.812809
0.658962
0.504139
0.349415
0.195109
0.0455374
1.52846
1.66144
1.0113
0.951135
0.812044
0.658694
0.50406
0.349397
0.195139
0.0457698
1.52661
1.64072
1.04646
0.95252
0.811411
0.658437
0.503981
0.349374
0.195133
0.0457687
1.52355
1.62386
1.07554
0.954178
0.810884
0.658193
0.503904
0.349348
0.195091
0.0455342
1.52018
1.61038
1.09938
0.955916
0.810441
0.657965
0.503829
0.34932
0.195016
0.0450592
1.51649
1.59987
1.11866
0.957583
0.810062
0.657753
0.503758
0.34929
0.194911
0.0443295
1.51193
1.59184
1.13389
0.959054
0.809725
0.657557
0.503691
0.349259
0.19478
0.0433229
1.50693
1.58565
1.14541
0.960237
0.809414
0.657377
0.50363
0.349229
0.194632
0.0420084
1.50286
1.58048
1.1535
0.961061
0.809117
0.657215
0.503576
0.349201
0.194475
0.0403449
1.50203
1.57619
1.15862
0.961449
0.808817
0.657069
0.503528
0.349177
0.194321
0.038279
1.50586
1.5737
1.16125
0.961332
0.808493
0.656937
0.503488
0.349158
0.194188
0.0356904
1.51124
1.57438
1.16151
0.960654
0.808124
0.656815
0.503454
0.349147
0.194146
0.0320191
0
0
0.915277
0.998005
0.821435
0.660921
0.504637
0.34945
0.193929
0.0287086
0
0
0.911856
0.991334
0.820569
0.660758
0.5046
0.349443
0.193958
0.0322245
0
0
0.876
0.987095
0.81966
0.660569
0.504556
0.349439
0.194074
0.0347216
0
0
0.887088
0.979598
0.818537
0.660346
0.504503
0.349435
0.19421
0.0367272
1.55814
1.72088
0.826864
0.969117
0.817304
0.660095
0.504441
0.34943
0.19435
0.0383506
1.55359
1.73136
0.849907
0.959754
0.816044
0.659825
0.504373
0.349423
0.194484
0.0396375
1.54606
1.70951
0.898482
0.955144
0.814868
0.659543
0.504299
0.349414
0.1946
0.040625
1.53636
1.68635
0.944429
0.953188
0.813818
0.659258
0.504221
0.349402
0.194691
0.0413415
1.52531
1.66572
0.98627
0.952563
0.812905
0.658974
0.50414
0.349386
0.194752
0.0418076
1.51435
1.64766
1.02253
0.95285
0.812123
0.658697
0.504059
0.349366
0.194781
0.0420368
1.50555
1.63189
1.05342
0.95375
0.811459
0.658431
0.503977
0.349343
0.194775
0.0420356
1.49945
1.61831
1.07949
0.955015
0.810898
0.658179
0.503897
0.349317
0.194734
0.0418042
1.49622
1.60682
1.10121
0.956441
0.810422
0.657942
0.50382
0.349288
0.19466
0.0413358
1.49596
1.59726
1.11901
0.95786
0.81001
0.657721
0.503746
0.349257
0.194558
0.0406172
1.49883
1.58944
1.13326
0.959137
0.809644
0.657517
0.503678
0.349226
0.194431
0.0396278
1.50454
1.58308
1.14426
0.960165
0.809307
0.657331
0.503615
0.349197
0.194288
0.0383391
1.51131
1.57806
1.15231
0.960862
0.808984
0.657163
0.503559
0.349169
0.194139
0.0367141
1.51789
1.57451
1.15765
0.961171
0.808667
0.657014
0.50351
0.349146
0.193996
0.0347071
1.5236
1.57277
1.16048
0.961032
0.80834
0.656882
0.50347
0.349129
0.193874
0.0322088
1.52786
1.57369
1.16087
0.960376
0.807981
0.656764
0.503437
0.349118
0.193841
0.0286919
0
0
0.906099
1.0017
0.821642
0.660982
0.504651
0.349439
0.193732
0.0242319
0
0
0.904356
0.994015
0.820988
0.66085
0.504621
0.349434
0.193757
0.0267765
0
0
0.867025
0.989475
0.820053
0.660664
0.504577
0.349429
0.193843
0.0291303
0
0
0.855456
0.979271
0.818939
0.660437
0.504522
0.349423
0.193963
0.0310945
1.57438
1.70932
0.864127
0.970007
0.817681
0.660178
0.504459
0.349417
0.194094
0.03269
1.57054
1.70065
0.892288
0.962844
0.816392
0.659895
0.504387
0.349409
0.194222
0.0339583
1.56243
1.6872
0.926389
0.958004
0.815156
0.659599
0.50431
0.349399
0.194334
0.0349335
1.55086
1.67159
0.963543
0.955136
0.814027
0.659298
0.504229
0.349385
0.194423
0.035642
1.53865
1.65572
0.998571
0.953797
0.813034
0.658998
0.504144
0.349368
0.194484
0.0361034
1.5278
1.6407
1.03017
0.95356
0.812178
0.658705
0.504059
0.349348
0.194511
0.0363303
1.51907
1.62707
1.05799
0.954077
0.81145
0.658424
0.503974
0.349324
0.194505
0.0363291
1.51292
1.61502
1.08201
0.955063
0.810833
0.658157
0.50389
0.349297
0.194464
0.0360998
1.50983
1.60463
1.10237
0.956286
0.810309
0.657906
0.503809
0.349267
0.194392
0.0356361
1.50991
1.59587
1.11927
0.957557
0.809857
0.657673
0.503732
0.349236
0.194291
0.0349253
1.51296
1.58871
1.13296
0.958728
0.809458
0.657459
0.503661
0.349205
0.194167
0.0339481
1.51876
1.58309
1.14368
0.95968
0.809094
0.657264
0.503596
0.349176
0.19403
0.0326779
1.52678
1.57901
1.15163
0.960323
0.80875
0.657089
0.503538
0.349149
0.193889
0.0310808
1.53519
1.57639
1.15702
0.960593
0.808416
0.656935
0.503489
0.349126
0.193762
0.0291151
1.54126
1.57531
1.16005
0.960474
0.808092
0.656805
0.503449
0.349109
0.193671
0.0267602
1.54415
1.5755
1.16069
0.960002
0.807804
0.656708
0.503421
0.3491
0.193642
0.0242148

VECTORS velocity float
0 0 0
0 0 0
0.785132 -0.0324758 -0.000756203
0.684012 -0.00307453 0.000791462
0.7178 -0.000747346 9.45669e-05
0.726363 -0.000165885 1.94363e-05
0.728278 -3.74288e-05 4.18405e-06
0.728739 -9.79385e-06 -2.02851e-06
0.729186 -1.4838e-05 -3.81444e-05
0.745593 -0.00112346 -0.000966533
0 0 0
0 0 0
-0.139388 -0.0963952 -0.000486082
0.695602 -0.0126304 0.000618119
0.766318 -0.0024521 0.00011613
0.777161 -0.00052893 2.43444e-05
0.779427 -0.000119018 5.21841e-06
0.779967 -3.10897e-05 -1.90935e-06
0.780558 -5.58409e-05 -4.11314e-05
0.786026 -0.00217721 -0.00113952
0 0 0
0 0 0
0.805277 -0.163148 0.000806016
0.730458 -0.0225949 0.000531021
0.770745 -0.00427129 0.000101726
0.78064 -0.000916439 2.34408e-05
0.782831 -0.000206147 5.13533e-06
0.783354 -5.35354e-05 -2.03582e-06
0.783864 -9.89462e-05 -4.41126e-05
0.788354 -0.00193401 -0.001167
0 0 0
0 0 0
-0.124787 -0.231861 0.000592828
0.71301 -0.0312142 0.000133299
0.77156 -0.00596209 8.6636e-05
0.781068 -0.00128265 2.15661e-05
0.783093 -0.00028887 4.7665e-06
0.783575 -7.42522e-05 -2.22772e-06
0.783994 -0.00012377 -4.61736e-05
0.788574 -0.00159791 -0.00117935
0.427624 -0.018044 -0.0390904
0.857494 0.00639242 -0.023648
0.811302 -0.260896 0.0113039
0.739027 -0.0396001 0.000913835
0.773442 -0.00748798 9.66729e-05
0.78138 -0.00161356 1.94696e-05
0.783166 -0.000363996 4.22855e-06
0.783594 -9.23303e-05 -2.44183e-06
0.783935 -0.000132608 -4.73107e-05
0.788659 -0.00128995 -0.0011862
0.5009 -0.0484706 -0.046358
0.973044 0.0119131 -0.0215617
0.917601 -0.246181 0.0137
0.758021 -0.0447376 0.00129753
0.775467 -0.00873905 9.68185e-05
0.781743 -0.00189873 1.66359e-05
0.783244 -0.000429418 3.54458e-06
0.783607 -0.000107272 -2.67638e-06
0.783883 -0.000129201 -4.80306e-05
0.788724 -0.0010138 -0.00119047
0.546095 -0.0665484 -0.052741
0.976869 0.00874295 -0.0174268
0.926726 -0.224096 0.00857579
0.770171 -0.0474768 0.000961809
0.777538 -0.00969702 7.55439e-05
0.782153 -0.00213082 1.29739e-05
0.783333 -0.000483425 2.74853e-06
0.783622 -0.000118752 -2.92064e-06
0.783844 -0.000116466 -4.84991e-05
0.788775 -0.000763626 -0.00119316
0.584039 -0.0721443 -0.0585589
0.971559 0.0043155 -0.0148853
0.925081 -0.200544 0.00481089
0.780162 -0.0483607 0.000609625
0.779683 -0.0103516 5.23365e-05
0.782599 -0.00230429 9.07505e-06
0.783432 -0.000524652 1.8806e-06
0.783641 -0.000126591 -3.16736e-06
0.783817 -9.67788e-05 -4.88085e-05
0.788813 -0.000533272 -0.00119483
0.614879 -0.067171 -0.0635894
0.966396 0.000749977 -0.0135893
0.922775 -0.177448 0.00262276
0.788917 -0.0477796 0.000358461
0.781844 -0.0107028 3.01708e-05
0.783068 -0.00241547 5.11099e-06
0.783536 -0.000552102 9.71472e-07
0.783662 -0.000130735 -3.4105e-06
0.783802 -7.21402e-05 -4.901e-05
0.788838 -0.0003168 -0.00119581
0.638464 -0.0537327 -0.0676705
0.961855 -0.0012668 -0.0129754
0.9206 -0.155592 0.00123874
0.796549 -0.046046 0.000182893
0.783955 -0.0107607 1.05892e-05
0.783547 -0.0024627 1.23044e-06