# vtk DataFile Version 2.0
TestTestTest
ASCII

DATASET STRUCTURED_GRID
DIMENSIONS 11 21 11
POINTS 2541 float
0 0 0
0.5 0 0
1 0 0
1.5 0 0
2 0 0
2.5 0 0
3 0 0
3.5 0 0
4 0 0
4.5 0 0
5 0 0
0 0.05 0
0.5 0.05 0
1 0.05 0
1.5 0.05 0
2 0.05 0
2.5 0.05 0
3 0.05 0
3.5 0.05 0
4 0.05 0
4.5 0.05 0
5 0.05 0
0 0.1 0
0.5 0.1 0
1 0.1 0
1.5 0.1 0
2 0.1 0
2.5 0.1 0
3 0.1 0
3.5 0.1 0
4 0.1 0
4.5 0.1 0
5 0.1 0
0 0.15 0
0.5 0.15 0
1 0.15 0
1.5 0.15 0
2 0.15 0
2.5 0.15 0
3 0.15 0
3.5 0.15 0
4 0.15 0
4.5 0.15 0
5 0.15 0
0 0.2 0
0.5 0.2 0
1 0.2 0
1.5 0.2 0
2 0.2 0
2.5 0.2 0
3 0.2 0
3.5 0.2 0
4 0.2 0
4.5 0.2 0
5 0.2 0
0 0.25 0
0.5 0.25 0
1 0.25 0
1.5 0.25 0
2 0.25 0
2.5 0.25 0
3 0.25 0
3.5 0.25 0
4 0.25 0
4.5 0.25 0
5 0.25 0
0 0.3 0
0.5 0.3 0
1 0.3 0
1.5 0.3 0
2 0.3 0
2.5 0.3 0
3 0.3 0
3.5 0.3 0
4 0.3 0
4.5 0.3 0
5 0.3 0
0 0.35 0
0.5 0.35 0
1 0.35 0
1.5 0.35 0
2 0.35 0
2.5 0.35 0
3 0.35 0
3.5 0.35 0
4 0.35 0
4.5 0.35 0
5 0.35 0
0 0.4 0
0.5 0.4 0
1 0.4 0
1.5 0.4 0
2 0.4 0
2.5 0.4 0
3 0.4 0
3.5 0.4 0
4 0.4 0
4.5 0.4 0
5 0.4 0
0 0.45 0
0.5 0.45 0
1 0.45 0
1.5 0.45 0
2 0.45 0
2.5 0.45 0
3 0.45 0
3.5 0.45 0
4 0.45 0
4.5 0.45 0
5 0.45 0
0 0.5 0
0.5 0.5 0
1 0.5 0
1.5 0.5 0
2 0.5 0
2.5 0.5 0
3 0.5 0
3.5 0.5 0
4 0.5 0
4.5 0.5 0
5 0.5 0
0 0.55 0
0.5 0.55 0
1 0.55 0
1.5 0.55 0
2 0.55 0
2.5 0.55 0
3 0.55 0
3.5 0.55 0
4 0.55 0
4.5 0.55 0
5 0.55 0
0 0.6 0
0.5 0.6 0
1 0.6 0
1.5 0.6 0
2 0.6 0
2.5 0.6 0
3 0.6 0
3.5 0.6 0
4 0.6 0
4.5 0.6 0
5 0.6 0
0 0.65 0
0.5 0.65 0
1 0.65 0
1.5 0.65 0
2 0.65 0
2.5 0.65 0
3 0.65 0
3.5 0.65 0
4 0.65 0
4.5 0.65 0
5 0.65 0
0 0.7 0
0.5 0.7 0
1 0.7 0
1.5 0.7 0
2 0.7 0
2.5 0.7 0
3 0.7 0
3.5 0.7 0
4 0.7 0
4.5 0.7 0
5 0.7 0
0 0.75 0
0.5 0.75 0
1 0.75 0
1.5 0.75 0
2 0.75 0
2.5 0.75 0
3 0.75 0
3.5 0.75 0
4 0.75 0
4.5 0.75 0
5 0.75 0
0 0.8 0
0.5 0.8 0
1 0.8 0
1.5 0.8 0
2 0.8 0
2.5 0.8 0
3 0.8 0
3.5 0.8 0
4 0.8 0
4.5 0.8 0
5 0.8 0
0 0.85 0
0.5 0.85 0
1 0.85 0
1.5 0.85 0
2 0.85 0
2.5 0.85 0
3 0.85 0
3.5 0.85 0
4 0.85 0
4.5 0.85 0
5 0.85 0
0 0.9 0
0.5 0.9 0
1 0.9 0
1.5 0.9 0
2 0.9 0
2.5 0.9 0
3 0.9 0
3.5 0.9 0
4 0.9 0
4.5 0.9 0
5 0.9 0
0 0.95 0
0.5 0.95 0
1 0.95 0
1.5 0.95 0
2 0.95 0
2.5 0.95 0
3 0.95 0
3.5 0.95 0
4 0.95 0
4.5 0.95 0
5 0.95 0
0 1 0
0.5 1 0
1 1 0
1.5 1 0
2 1 0
2.5 1 0
3 1 0
3.5 1 0
4 1 0
4.5 1 0
5 1 0
0 0 0.1
0.5 0 0.1
1 0 0.1
1.5 0 0.1
2 0 0.1
2.5 0 0.1
3 0 0.1
3.5 0 0.1
4 0 0.1
4.5 0 0.1
5 0 0.1
0 0.05 0.1
0.5 0.05 0.1
1 0.05 0.1
1.5 0.05 0.1
2 0.05 0.1
2.5 0.05 0.1
3 0.05 0.1
3.5 0.05 0.1
4 0.05 0.1
4.5 0.05 0.1
5 0.05 0.1
0 0.1 0.1
0.5 0.1 0.1
1 0.1 0.1
1.5 0.1 0.1
2 0.1 0.1
2.5 0.1 0.1
3 0.1 0.1
3.5 0.1 0.1
4 0.1 0.1
4.5 0.1 0.1
5 0.1 0.1
0 0.15 0.1
0.5 0.15 0.1
1 0.15 0.1
1.5 0.15 0.1
2 0.15 0.1
2.5 0.15 0.1
3 0.15 0.1
3.5 0.15 0.1
4 0.15 0.1
4.5 0.15 0.1
5 0.15 0.1
0 0.2 0.1
0.5 0.2 0.1
1 0.2 0.1
1.5 0.2 0.1
2 0.2 0.1
2.5 0.2 0.1
3 0.2 0.1
3.5 0.2 0.1
4 0.2 0.1
4.5 0.2 0.1
5 0.2 0.1
0 0.25 0.1
0.5 0.25 0.1
1 0.25 0.1
1.5 0.25 0.1
2 0.25 0.1
2.5 0.25 0.1
3 0.25 0.1
3.5 0.25 0.1
4 0.25 0.1
4.5 0.25 0.1
5 0.25 0.1
0 0.3 0.1
0.5 0.3 0.1
1 0.3 0.1
1.5 0.3 0.1
2 0.3 0.1
2.5 0.3 0.1
3 0.3 0.1
3.5 0.3 0.1
4 0.3 0.1
4.5 0.3 0.1
5 0.3 0.1
0 0.35 0.1
0.5 0.35 0.1
1 0.35 0.1
1.5 0.35 0.1
2 0.35 0.1
2.5 0.35 0.1
3 0.35 0.1
3.5 0.35 0.1
4 0.35 0.1
4.5 0.35 0.1
5 0.35 0.1
0 0.4 0.1
0.5 0.4 0.1
1 0.4 0.1
1.5 0.4 0.1
2 0.4 0.1
2.5 0.4 0.1
3 0.4 0.1
3.5 0.4 0.1
4 0.4 0.1
4.5 0.4 0.1
5 0.4 0.1
0 0.45 0.1
0.5 0.45 0.1
1 0.45 0.1
1.5 0.45 0.1
2 0.45 0.1
2.5 0.45 0.1
3 0.45 0.1
3.5 0.45 0.1
4 0.45 0.1
4.5 0.45 0.1
5 0.45 0.1
0 0.5 0.1
0.5 0.5 0.1
1 0.5 0.1
1.5 0.5 0.1
2 0.5 0.1
2.5 0.5 0.1
3 0.5 0.1
3.5 0.5 0.1
4 0.5 0.1
4.5 0.5 0.1
5 0.5 0.1
0 0.55 0.1
0.5 0.55 0.1
1 0.55 0.1
1.5 0.55 0.1
2 0.55 0.1
2.5 0.55 0.1
3 0.55 0.1
3.5 0.55 0.1
4 0.55 0.1
4.5 0.55 0.1
5 0.55 0.1
0 0.6 0.1
0.5 0.6 0.1
1 0.6 0.1
1.5 0.6 0.1
2 0.6 0.1
2.5 0.6 0.1
3 0.6 0.1
3.5 0.6 0.1
4 0.6 0.1
4.5 0.6 0.1
5 0.6 0.1
0 0.65 0.1
0.5 0.65 0.1
1 0.65 0.1
1.5 0.65 0.1
2 0.65 0.1
2.5 0.65 0.1
3 0.65 0.1
3.5 0.65 0.1
4 0.65 0.1
4.5 0.65 0.1
5 0.65 0.1
0 0.7 0.1
0.5 0.7 0.1
1 0.7 0.1
1.5 0.7 0.1
2 0.7 0.1
2.5 0.7 0.1
3 0.7 0.1
3.5 0.7 0.1
4 0.7 0.1
4.5 0.7 0.1
5 0.7 0.1
0 0.75 0.1
0.5 0.75 0.1
1 0.75 0.1
1.5 0.75 0.1
2 0.75 0.1
2.5 0.75 0.1
3 0.75 0.1
3.5 0.75 0.1
4 0.75 0.1
4.5 0.75 0.1
5 0.75 0.1
0 0.8 0.1
0.5 0.8 0.1
1 0.8 0.1
1.5 0.8 0.1
2 0.8 0.1
2.5 0.8 0.1
3 0.8 0.1
3.5 0.8 0.1
4 0.8 0.1
4.5 0.8 0.1
5 0.8 0.1
0 0.85 0.1
0.5 0.85 0.1
1 0.85 0.1
1.5 0.85 0.1
2 0.85 0.1
2.5 0.85 0.1
3 0.85 0.1
3.5 0.85 0.1
4 0.85 0.1
4.5 0.85 0.1
5 0.85 0.1
0 0.9 0.1
0.5 0.9 0.1
1 0.9 0.1
1.5 0.9 0.1
2 0.9 0.1
2.5 0.9 0.1
3 0.9 0.1
3.5 0.9 0.1
4 0.9 0.1
4.5 0.9 0.1
5 0.9 0.1
0 0.95 0.1
0.5 0.95 0.1
1 0.95 0.1
1.5 0.95 0.1
2 0.95 0.1
2.5 0.95 0.1
3 0.95 0.1
3.5 0.95 0.1
4 0.95 0.1
4.5 0.95 0.1
5 0.95 0.1
0 1 0.1
0.5 1 0.1
1 1 0.1
1.5 1 0.1
2 1 0.1
2.5 1 0.1
3 1 0.1
3.5 1 0.1
4 1 0.1
4.5 1 0.1
5 1 0.1
0 0 0.2
0.5 0 0.2
1 0 0.2
1.5 0 0.2
2 0 0.2
2.5 0 0.2
3 0 0.2
3.5 0 0.2
4 0 0.2
4.5 0 0.2
5 0 0.2
0 0.05 0.2
0.5 0.05 0.2
1 0.05 0.2
1.5 0.05 0.2
2 0.05 0.2
2.5 0.05 0.2
3 0.05 0.2
3.5 0.05 0.2
4 0.05 0.2
4.5 0.05 0.2
5 0.05 0.2
0 0.1 0.2
0.5 0.1 0.2
1 0.1 0.2
1.5 0.1 0.2
2 0.1 0.2
2.5 0.1 0.2
3 0.1 0.2
3.5 0.1 0.2
4 0.1 0.2
4.5 0.1 0.2
5 0.1 0.2
0 0.15 0.2
0.5 0.15 0.2
1 0.15 0.2
1.5 0.15 0.2
2 0.15 0.2
2.5 0.15 0.2
3 0.15 0.2
3.5 0.15 0.2
4 0.15 0.2
4.5 0.15 0.2
5 0.15 0.2
0 0.2 0.2
0.5 0.2 0.2
1 0.2 0.2
1.5 0.2 0.2
2 0.2 0.2
2.5 0.2 0.2
3 0.2 0.2
3.5 0.2 0.2
4 0.2 0.2
4.5 0.2 0.2
5 0.2 0.2
0 0.25 0.2
0.5 0.25 0.2
1 0.25 0.2
1.5 0.25 0.2
2 0.25 0.2
2.5 0.25 0.2
3 0.25 0.2
3.5 0.25 0.2
4 0.25 0.2
4.5 0.25 0.2
5 0.25 0.2
0 0.3 0.2
0.5 0.3 0.2
1 0.3 0.2
1.5 0.3 0.2
2 0.3 0.2
2.5 0.3 0.2
3 0.3 0.2
3.5 0.3 0.2
4 0.3 0.2
4.5 0.3 0.2
5 0.3 0.2
0 0.35 0.2
0.5 0.35 0.2
1 0.35 0.2
1.5 0.35 0.2
2 0.35 0.2
2.5 0.35 0.2
3 0.35 0.2
3.5 0.35 0.2
4 0.35 0.2
4.5 0.35 0.2
5 0.35 0.2
0 0.4 0.2
0.5 0.4 0.2
1 0.4 0.2
1.5 0.4 0.2
2 0.4 0.2
2.5 0.4 0.2
3 0.4 0.2
3.5 0.4 0.2
4 0.4 0.2
4.5 0.4 0.2
5 0.4 0.2
0 0.45 0.2
0.5 0.45 0.2
1 0.45 0.2
1.5 0.45 0.2
2 0.45 0.2
2.5 0.45 0.2
3 0.45 0.2
3.5 0.45 0.2
4 0.45 0.2
4.5 0.45 0.2
5 0.45 0.2
0 0.5 0.2
0.5 0.5 0.2
1 0.5 0.2
1.5 0.5 0.2
2 0.5 0.2
2.5 0.5 0.2
3 0.5 0.2
3.5 0.5 0.2
4 0.5 0.2
4.5 0.5 0.2
5 0.5 0.2
0 0.55 0.2
0.5 0.55 0.2
1 0.55 0.2
1.5 0.55 0.2
2 0.55 0.2
2.5 0.55 0.2
3 0.55 0.2
3.5 0.55 0.2
4 0.55 0.2
4.5 0.55 0.2
5 0.55 0.2
0 0.6 0.2
0.5 0.6 0.2
1 0.6 0.2
1.5 0.6 0.2
2 0.6 0.2
2.5 0.6 0.2
3 0.6 0.2
3.5 0.6 0.2
4 0.6 0.2
4.5 0.6 0.2
5 0.6 0.2
0 0.65 0.2
0.5 0.65 0.2
1 0.65 0.2
1.5 0.65 0.2
2 0.65 0.2
2.5 0.65 0.2
3 0.65 0.2
3.5 0.65 0.2
4 0.65 0.2
4.5 0.65 0.2
5 0.65 0.2
0 0.7 0.2
0.5 0.7 0.2
1 0.7 0.2
1.5 0.7 0.2
2 0.7 0.2
2.5 0.7 0.2
3 0.7 0.2
3.5 0.7 0.2
4 0.7 0.2
4.5 0.7 0.2
5 0.7 0.2
0 0.75 0.2
0.5 0.75 0.2
1 0.75 0.2
1.5 0.75 0.2
2 0.75 0.2
2.5 0.75 0.2
3 0.75 0.2
3.5 0.75 0.2
4 0.75 0.2
4.5 0.75 0.2
5 0.75 0.2
0 0.8 0.2
0.5 0.8 0.2
1 0.8 0.2
1.5 0.8 0.2
2 0.8 0.2
2.5 0.8 0.2
3 0.8 0.2
3.5 0.8 0.2
4 0.8 0.2
4.5 0.8 0.2
5 0.8 0.2
0 0.85 0.2
0.5 0.85 0.2
1 0.85 0.2
1.5 0.85 0.2
2 0.85 0.2
2.5 0.85 0.2
3 0.85 0.2
3.5 0.85 0.2
4 0.85 0.2
4.5 0.85 0.2
5 0.85 0.2
0 0.9 0.2
0.5 0.9 0.2
1 0.9 0.2
1.5 0.9 0.2
2 0.9 0.2
2.5 0.9 0.2
3 0.9 0.2
3.5 0.9 0.2
4 0.9 0.2
4.5 0.9 0.2
5 0.9 0.2
0 0.95 0.2
0.5 0.95 0.2
1 0.95 0.2
1.5 0.95 0.2
2 0.95 0.2
2.5 0.95 0.2
3 0.95 0.2
3.5 0.95 0.2
4 0.95 0.2
4.5 0.95 0.2
5 0.95 0.2
0 1 0.2
0.5 1 0.2
1 1 0.2
1.5 1 0.2
2 1 0.2
2.5 1 0.2
3 1 0.2
3.5 1 0.2
4 1 0.2
4.5 1 0.2
5 1 0.2
0 0 0.3
0.5 0 0.3
1 0 0.3
1.5 0 0.3
2 0 0.3
2.5 0 0.3
3 0 0.3
3.5 0 0.3
4 0 0.3
4.5 0 0.3
5 0 0.3
0 0.05 0.3
0.5 0.05 0.3
1 0.05 0.3
1.5 0.05 0.3
2 0.05 0.3
2.5 0.05 0.3
3 0.05 0.3
3.5 0.05 0.3
4 0.05 0.3
4.5 0.05 0.3
5 0.05 0.3
0 0.1 0.3
0.5 0.1 0.3
1 0.1 0.3
1.5 0.1 0.3
2 0.1 0.3
2.5 0.1 0.3
3 0.1 0.3
3.5 0.1 0.3
4 0.1 0.3
4.5 0.1 0.3
5 0.1 0.3
0 0.15 0.3
0.5 0.15 0.3
1 0.15 0.3
1.5 0.15 0.3
2 0.15 0.3
2.5 0.15 0.3
3 0.15 0.3
3.5 0.15 0.3
4 0.15 0.3
4.5 0.15 0.3
5 0.15 0.3
0 0.2 0.3
0.5 0.2 0.3
1 0.2 0.3
1.5 0.2 0.3
2 0.2 0.3
2.5 0.2 0.3
3 0.2 0.3
3.5 0.2 0.3
4 0.2 0.3
4.5 0.2 0.3
5 0.2 0.3
0 0.25 0.3
0.5 0.25 0.3
1 0.25 0.3
1.5 0.25 0.3
2 0.25 0.3
2.5 0.25 0.3
3 0.25 0.3
3.5 0.25 0.3
4 0.25 0.3
4.5 0.25 0.3
5 0.25 0.3
0 0.3 0.3
0.5 0.3 0.3
1 0.3 0.3
1.5 0.3 0.3
2 0.3 0.3
2.5 0.3 0.3
3 0.3 0.3
3.5 0.3 0.3
4 0.3 0.3
4.5 0.3 0.3
5 0.3 0.3
0 0.35 0.3
0.5 0.35 0.3
1 0.35 0.3
1.5 0.35 0.3
2 0.35 0.3
2.5 0.35 0.3
3 0.35 0.3
3.5 0.35 0.3
4 0.35 0.3
4.5 0.35 0.3
5 0.35 0.3
0 0.4 0.3
0.5 0.4 0.3
1 0.4 0.3
1.5 0.4 0.3
2 0.4 0.3
2.5 0.4 0.3
3 0.4 0.3
3.5 0.4 0.3
4 0.4 0.3
4.5 0.4 0.3
5 0.4 0.3
0 0.45 0.3
0.5 0.45 0.3
1 0.45 0.3
1.5 0.45 0.3
2 0.45 0.3
2.5 0.45 0.3
3 0.45 0.3
3.5 0.45 0.3
4 0.45 0.3
4.5 0.45 0.3
5 0.45 0.3
0 0.5 0.3
0.5 0.5 0.3
1 0.5 0.3
1.5 0.5 0.3
2 0.5 0.3
2.5 0.5 0.3
3 0.5 0.3
3.5 0.5 0.3
4 0.5 0.3
4.5 0.5 0.3
5 0.5 0.3
0 0.55 0.3
0.5 0.55 0.3
1 0.55 0.3
1.5 0.55 0.3
2 0.55 0.3
2.5 0.55 0.3
3 0.55 0.3
3.5 0.55 0.3
4 0.55 0.3
4.5 0.55 0.3
5 0.55 0.3
0 0.6 0.3
0.5 0.6 0.3
1 0.6 0.3
1.5 0.6 0.3
2 0.6 0.3
2.5 0.6 0.3
3 0.6 0.3
3.5 0.6 0.3
4 0.6 0.3
4.5 0.6 0.3
5 0.6 0.3
0 0.65 0.3
0.5 0.65 0.3
1 0.65 0.3
1.5 0.65 0.3
2 0.65 0.3
2.5 0.65 0.3
3 0.65 0.3
3.5 0.65 0.3
4 0.65 0.3
4.5 0.65 0.3
5 0.65 0.3
0 0.7 0.3
0.5 0.7 0.3
1 0.7 0.3
1.5 0.7 0.3
2 0.7 0.3
2.5 0.7 0.3
3 0.7 0.3
3.5 0.7 0.3
4 0.7 0.3
4.5 0.7 0.3
5 0.7 0.3
0 0.75 0.3
0.5 0.75 0.3
1 0.75 0.3
1.5 0.75 0.3
2 0.75 0.3
2.5 0.75 0.3
3 0.75 0.3
3.5 0.75 0.3
4 0.75 0.3
4.5 0.75 0.3
5 0.75 0.3
0 0.8 0.3
0.5 0.8 0.3
1 0.8 0.3
1.5 0.8 0.3
2 0.8 0.3
2.5 0.8 0.3
3 0.8 0.3
3.5 0.8 0.3
4 0.8 0.3
4.5 0.8 0.3
5 0.8 0.3
0 0.85 0.3
0.5 0.85 0.3
1 0.85 0.3
1.5 0.85 0.3
2 0.85 0.3
2.5 0.85 0.3
3 0.85 0.3
3.5 0.85 0.3
4 0.85 0.3
4.5 0.85 0.3
5 0.85 0.3
0 0.9 0.3
0.5 0.9 0.3
1 0.9 0.3
1.5 0.9 0.3
2 0.9 0.3
2.5 0.9 0.3
3 0.9 0.3
3.5 0.9 0.3
4 0.9 0.3
4.5 0.9 0.3
5 0.9 0.3
0 0.95 0.3
0.5 0.95 0.3
1 0.95 0.3
1.5 0.95 0.3
2 0.95 0.3
2.5 0.95 0.3
3 0.95 0.3
3.5 0.95 0.3
4 0.95 0.3
4.5 0.95 0.3
5 0.95 0.3
0 1 0.3
0.5 1 0.3
1 1 0.3
1.5 1 0.3
2 1 0.3
2.5 1 0.3
3 1 0.3
3.5 1 0.3
4 1 0.3
4.5 1 0.3
5 1 0.3
0 0 0.4
[...]
CELL_DATA 2000
SCALARS pressure float 1
LOOKUP_TABLE default
0
0
0.729702
1.01923
0.862949
0.701671
0.537237
0.372016
0.205714
0.0245027
0
0
0.736046
1.01143
0.862496
0.701605
0.537223
0.372016
0.205787
0.0276296
0
0
0.702551
1.00812
0.862117
0.701573
0.537217
0.372023
0.205913
0.0302901
0
0
0.716038
0.999067
0.861858
0.701578
0.537218
0.372033
0.206068
0.032493
2.57233
2.81211
0.752389
0.993256
0.861804
0.701622
0.537227
0.372047
0.206231
0.0342873
2.56366
2.76826
0.83486
0.992348
0.862043
0.701708
0.537244
0.372062
0.206387
0.0357167
2.54838
2.71146
0.92283
0.995603
0.862606
0.701836
0.537267
0.372078
0.206525
0.0368176
2.52794
2.65164
1.00781
1.00171
0.863481
0.702003
0.537296
0.372092
0.206636
0.0376187
2.50583
2.59389
1.086
1.00975
0.864622
0.702203
0.53733
0.372104
0.206713
0.0381412
2.48462
2.54077
1.15589
1.01895
0.865968
0.702429
0.537367
0.372113
0.206752
0.038399
2.46561
2.49332
1.21711
1.02866
0.867449
0.702673
0.537406
0.372118
0.206753
0.038399
2.44988
2.45178
1.26987
1.03837
0.868991
0.702923
0.537445
0.372119
0.206714
0.0381412
2.43834
2.41605
1.31465
1.04767
0.870524
0.703169
0.537482
0.372116
0.206637
0.0376187
2.4314
2.38585
1.35201
1.05624
0.87198
0.7034
0.537515
0.37211
0.206527
0.0368175
2.42875
2.36091
1.38256
1.06383
0.873296
0.703607
0.537544
0.3721
0.206389
0.0357165
2.42998
2.34097
1.40684
1.07023
0.874421
0.703779
0.537566
0.372088
0.206232
0.0342869
2.43449
2.32587
1.42534
1.0753
0.875309
0.703909
0.537581
0.372076
0.206068
0.0324924
2.44046
2.31542
1.43845
1.07895
0.875925
0.703991
0.537587
0.372063
0.205912
0.0302891
2.44522
2.30947
1.4465
1.08109
0.876245
0.70402
0.537585
0.372053
0.205784
0.0276281
2.44818
2.30772
1.44953
1.08167
0.876251
0.703993
0.537573
0.372045
0.20571
0.0245007
0
0
0.713533
1.01559
0.862406
0.701564
0.537215
0.372029
0.205967
0.0296762
0
0
0.720283
1.00842
0.861932
0.701493
0.5372
0.372029
0.206047
0.033164
0
0
0.670475
1.00584
0.861597
0.701465
0.537194
0.372036
0.206179
0.0359362
0
0
0.718238
0.997463
0.861377
0.701478
0.537197
0.372047
0.206338
0.0382006
2.5578
2.98987
0.597645
0.98835
0.861356
0.701534
0.537209
0.372062
0.206504
0.0400304
2.54774
2.8873
0.730448
0.985964
0.861642
0.701634
0.537228
0.372078
0.206662
0.0414809
2.53205
2.78663
0.857985
0.991041
0.862279
0.701777
0.537255
0.372094
0.206801
0.0425945
2.51258
2.70082
0.967384
0.99857
0.863236
0.70196
0.537288
0.372109
0.206913
0.0434032
2.49029
2.62773
1.06069
1.00765
0.86446
0.702177
0.537326
0.372122
0.206991
0.04393
2.46678
2.56542
1.14009
1.01761
0.865884
0.70242
0.537367
0.372132
0.207031
0.0441898
2.44559
2.51217
1.20739
1.02788
0.867435
0.702679
0.537409
0.372138
0.207031
0.0441899
2.42863
2.4667
1.26408
1.038
0.869039
0.702943
0.537452
0.37214
0.206992
0.0439302
2.41677
2.42796
1.31141
1.04761
0.870625
0.703203
0.537492
0.372138
0.206915
0.0434035
2.41045
2.39516
1.35042
1.0564
0.872125
0.703447
0.537529
0.372132
0.206804
0.0425948
2.40939
2.36776
1.38199
1.06414
0.873479
0.703664
0.53756
0.372123
0.206666
0.0414812
2.41231
2.34535
1.40687
1.07066
0.874633
0.703845
0.537585
0.372112
0.206507
0.0400306
2.41628
2.32792
1.42566
1.07581
0.875543
0.703982
0.537602
0.372099
0.206341
0.0382006
2.42047
2.31557
1.43885
1.0795
0.876174
0.704069
0.537609
0.372087
0.206181
0.0359359
2.42485
2.30821
1.44681
1.08165
0.876499
0.7041
0.537608
0.372076
0.206047
0.0331633
2.42866
2.30596
1.44977
1.08219
0.876493
0.704069
0.537595
0.372068
0.205965
0.0296749
0
0
0.693914
1.01176
0.861961
0.701479
0.537199
0.372052
0.206297
0.0332681
0
0
0.69617
1.0056
0.861506
0.701409
0.537184
0.372053
0.206379
0.0368132
0
0
0.648886
1.00387
0.861215
0.701386
0.537179
0.37206
0.206514
0.0396353
0
0
0.698235
0.997211
0.861047
0.701407
0.537184
0.372072
0.206676
0.0419382
2.54605
3.13536
0.460675
0.985007
0.861039
0.701471
0.537197
0.372087
0.206844
0.0437959
2.53401
3.02644
0.611356
0.97952
0.861309
0.701579
0.537219
0.372104
0.207005
0.0452659
2.51926
2.88384
0.781458
0.984953
0.861947
0.701732
0.537248
0.372121
0.207145
0.0463928
2.50699
2.77061
0.916822
0.993767
0.862934
0.701925
0.537283
0.372137
0.207258
0.0472102
2.49542
2.6796
1.02716
1.00394
0.864207
0.702152
0.537324
0.37215
0.207337
0.0477423
2.48191
2.60539
1.11804
1.0148
0.865684
0.702405
0.537367
0.372161
0.207377
0.0480046
2.46597
2.54432
1.19315
1.0258
0.86729
0.702675
0.537413
0.372168
0.207378
0.0480047
2.45003
2.49335
1.25517
1.03651
0.868947
0.70295
0.537458
0.37217
0.207339
0.0477426
2.43768
2.45021
1.30612
1.04658
0.870581
0.703219
0.537501
0.372169
0.207261
0.0472107
2.42937
2.4135
1.34756
1.05573
0.872125
0.703472
0.53754
0.372163
0.20715
0.0463934
2.42196
2.38251
1.38071
1.06375
0.873517
0.703697
0.537573
0.372155
0.207009
0.0452665
2.41367
2.35689
1.40654
1.07047
0.874704
0.703886
0.5376
0.372144
0.206849
0.0437964
2.40577
2.33627
1.42577
1.0758
0.875644
0.704029
0.537618
0.372132
0.20668
0.0419386
2.40176
2.32089
1.43908
1.07961
0.8763
0.70412
0.537627
0.372119
0.206518
0.0396354
2.40447
2.31134
1.44703
1.08183
0.876639
0.704153
0.537625
0.372109
0.206381
0.036813
2.41005
2.30793
1.44994
1.0824
0.876637
0.704124
0.537613
0.3721
0.206297
0.0332673
0
0
0.673189
1.0092
0.861642
0.701421
0.537189
0.372076
0.206574
0.0354894
0
0
0.673098
1.00323
0.8612
0.701353
0.537174
0.372077
0.206657
0.0390477
0
0
0.62107
1.00174
0.860935
0.701333
0.53717
0.372084
0.206794
0.0418873
0
0
0.660083
0.995353
0.860801
0.701358
0.537175
0.372096
0.206957
0.0442074
2.54182
3.22269
0.41203
0.983042
0.860834
0.701429
0.53719
0.372112
0.207127
0.0460798
2.52883
3.10697
0.551275
0.97729
0.86114
0.701545
0.537213
0.372129
0.207289
0.0475616
2.51543
2.95063
0.732037
0.982283
0.861779
0.701704
0.537244
0.372147
0.207431
0.0486973
2.50881
2.82431
0.880221
0.990935
0.862744
0.701901
0.537281
0.372163
0.207545
0.0495209
2.50911
2.72298
1.00113
1.0012
0.864005
0.702133
0.537323
0.372177
0.207624
0.0500568
2.51122
2.64075
1.09991
1.01235
0.865489
0.702391
0.537368
0.372188
0.207665
0.050321
2.50886
2.57276
1.18094
1.02371
0.867112
0.702665
0.537415
0.372195
0.207665
0.0503211
2.50019
2.51609
1.24738
1.03479
0.868792
0.702946
0.537462
0.372198
0.207626
0.0500572
2.48736
2.469
1.30158
1.04519
0.870454
0.703221
0.537507
0.372197
0.207548
0.0495215
2.47077
2.42979
1.34524
1.05466
0.872029
0.703479
0.537547
0.372192
0.207436
0.048698
2.44873
2.39666
1.37967
1.063
0.873462
0.703711
0.537582
0.372184
0.207295
0.0475624
2.42379
2.3684
1.40612
1.07002
0.874692
0.703906
0.53761
0.372173
0.207133
0.0460807
2.4031
2.34504
1.42567
1.07556
0.875667
0.704054
0.537629
0.372161
0.206963
0.0442081
2.3927
2.32725
1.43914
1.07951
0.876346
0.704149
0.537638
0.372149
0.206799
0.0418878
2.39362
2.31584
1.44714
1.08181
0.8767
0.704185
0.537638
0.372138
0.20666
0.0390478
2.40005
2.31141
1.45002
1.08241
0.876705
0.704156
0.537626
0.372129
0.206575
0.035489
0
0
0.660481
1.0078
0.861473
0.701391
0.537184
0.372091
0.206729
0.0365463
0
0
0.659223
1.00186
0.861038
0.701324
0.537169
0.372092
0.206812
0.0401083
0
0
0.604722
1.00043
0.860784
0.701306
0.537165
0.372099
0.206949
0.0429535
0
0
0.640707
0.994096
0.860667
0.701334
0.537171
0.372111
0.207113
0.0452799
2.54105
3.26127
0.391169
0.981833
0.860721
0.701408
0.537186
0.372127
0.207284
0.0471583
2.52771
3.14332
0.52876
0.976177
0.861051
0.701528
0.53721
0.372144
0.207447
0.0486452
2.51582
2.98312
0.710164
0.981414
0.861722
0.701691
0.537242
0.372162
0.207589
0.049785
2.5134
2.85264
0.86113
0.9903
0.86271
0.701893
0.53728
0.372179
0.207703
0.0506116
2.5201
2.74699
0.986278
1.00045
0.863957
0.702126
0.537323
0.372193
0.207783
0.0511495
2.53103
2.66036
1.08963
1.01127
0.865399
0.702384
0.537369
0.372204
0.207824
0.0514146
2.53937
2.5882
1.17442
1.02241
0.866985
0.702657
0.537416
0.372212
0.207825
0.0514148
2.53801
2.52776
1.24357
1.03348
0.868652
0.702938
0.537464
0.372215
0.207785
0.0511499
2.52488
2.47842
1.29945
1.04411
0.870331
0.703216
0.537509
0.372214
0.207707
0.0506123
2.50042
2.43841
1.34402
1.05389
0.871943
0.703479
0.537551
0.372209
0.207594
0.0497858
2.46713
2.4045
1.37899
1.06249
0.87341
0.703715
0.537586
0.372201
0.207453
0.0486462
2.43281
2.37521
1.40579
1.06969
0.874668
0.703914
0.537615
0.37219
0.207291
0.0471593
2.40519
2.35055
1.42556
1.07536
0.875663
0.704065
0.537634
0.372178
0.207119
0.0452808
2.39021
2.33143
1.43914
1.0794
0.876356
0.704162
0.537644
0.372166
0.206955
0.0429542
2.38941
2.31894
1.44718
1.08175
0.87672
0.704199
0.537644
0.372155
0.206816
0.0401085
2.39615
2.31393
1.45005
1.08237
0.876728
0.704171
0.537632
0.372147
0.206731
0.0365461
0
0
0.660481
1.0078
0.861473
0.701391
0.537184
0.372091
0.206729
0.0365463
0
0
0.659223
1.00186
0.861038
0.701324
0.537169
0.372092
0.206812
0.0401083
0
0
0.604722
1.00043
0.860784
0.701306
0.537165
0.372099
0.206949
0.0429535
0
0
0.640707
0.994096
0.860667
0.701334
0.537171
0.372111
0.207113
0.0452799
2.54105
3.26127
0.391169
0.981833
0.860721
0.701408
0.537186
0.372127
0.207284
0.0471583
2.52771
3.14332
0.52876
0.976177
0.861051
0.701528
0.53721
0.372144
0.207447
0.0486452
2.51582
2.98312
0.710164
0.981414
0.861722
0.701691
0.537242
0.372162
0.207589
0.049785
2.5134
2.85264
0.86113
0.9903
0.86271
0.701893
0.53728
0.372179
0.207703
0.0506116
2.5201
2.74699
0.986278
1.00045
0.863957
0.702126
0.537323
0.372193
0.207783
0.0511495
2.53103
2.66036
1.08963
1.01127
0.865399
0.702384
0.537369
0.372204
0.207824
0.0514146
2.53937
2.5882
1.17442
1.02241
0.866985
0.702657
0.537416
0.372212
0.207825
0.0514148
2.53801
2.52776
1.24357
1.03348
0.868652
0.702938
0.537464
0.372215
0.207785
0.0511499
2.52488
2.47842
1.29945
1.04411
0.870331
0.703216
0.537509
0.372214
0.207707
0.0506123
2.50042
2.43841
1.34402
1.05389
0.871943
0.703479
0.537551
0.372209
0.207594
0.0497858
2.46713
2.4045
1.37899
1.06249
0.87341
0.703715
0.537586
0.372201
0.207453
0.0486462
2.43281
2.37521
1.40579
1.06969
0.874668
0.703914
0.537615
0.37219
0.207291
0.0471593
2.40519
2.35055
1.42556
1.07536
0.875663
0.704065
0.537634
0.372178
0.207119
0.0452808
2.39021
2.33143
1.43914
1.0794
0.876356
0.704162
0.537644
0.372166
0.206955
0.0429542
2.38941
2.31894
1.44718
1.08175
0.87672
0.704199
0.537644
0.372155
0.206816
0.0401085
2.39615
2.31393
1.45005
1.08237
0.876728
0.704171
0.537632
0.372147
0.206731
0.0365461
0
0
0.673189
1.0092
0.861642
0.701421
0.537189
0.372076
0.206574
0.0354894
0
0
0.673098
1.00323
0.8612
0.701353
0.537174
0.372077
0.206657
0.0390477
0
0
0.62107
1.00174
0.860935
0.701333
0.53717
0.372084
0.206794
0.0418873
0
0
0.660083
0.995353
0.860801
0.701358
0.537175
0.372096
0.206957
0.0442074
2.54182
3.22269
0.41203
0.983042
0.860834
0.701429
0.53719
0.372112
0.207127
0.0460798
2.52883
3.10697
0.551275
0.97729
0.86114
0.701545
0.537213
0.372129
0.207289
0.0475616
2.51543
2.95063
0.732037
0.982283
0.861779
0.701704
0.537244
0.372147
0.207431
0.0486973
2.50881
2.82431
0.880221
0.990935
0.862744
0.701901
0.537281
0.372163
0.207545
0.0495209
2.50911
2.72298
1.00113
1.0012
0.864005
0.702133
0.537323
0.372177
0.207624
0.0500568
2.51122
2.64075
1.09991
1.01235
0.865489
0.702391
0.537368
0.372188
0.207665
0.050321
2.50886
2.57276
1.18094
1.02371
0.867112
0.702665
0.537415
0.372195
0.207665
0.0503211
2.50019
2.51609
1.24738
1.03479
0.868792
0.702946
0.537462
0.372198
0.207626
0.0500572
2.48736
2.469
1.30158
1.04519
0.870454
0.703221
0.537507
0.372197
0.207548
0.0495215
2.47077
2.42979
1.34524
1.05466
0.872029
0.703479
0.537547
0.372192
0.207436
0.048698
2.44873
2.39666
1.37967
1.063
0.873462
0.703711
0.537582
0.372184
0.207295
0.0475624
2.42379
2.3684
1.40612
1.07002
0.874692
0.703906
0.53761
0.372173
0.207133
0.0460807
2.4031
2.34504
1.42567
1.07556
0.875667
0.704054
0.537629
0.372161
0.206963
0.0442081
2.3927
2.32725
1.43914
1.07951
0.876346
0.704149
0.537638
0.372149
0.206799
0.0418878
2.39362
2.31584
1.44714
1.08181
0.8767
0.704185
0.537638
0.372138
0.20666
0.0390478
2.40005
2.31141
1.45002
1.08241
0.876705
0.704156
0.537626
0.372129
0.206575
0.035489
0
0
0.693914
1.01176
0.861961
0.701479
0.537199
0.372052
0.206297
0.0332681
0
0
0.69617
1.0056
0.861506
0.701409
0.537184
0.372053
0.206379
0.0368132
0
0
0.648886
1.00387
0.861215
0.701386
0.537179
0.37206
0.206514
0.0396353
0
0
0.698235
0.997211
0.861047
0.701407
0.537184
0.372072
0.206676
0.0419382
2.54605
3.13536
0.460675
0.985007
0.861039
0.701471
0.537197
0.372087
0.206844
0.0437959
2.53401
3.02644
0.611356
0.97952
0.861309
0.701579
0.537219
0.372104
0.207005
0.0452659
2.51926
2.88384
0.781458
0.984953
0.861947
0.701732
0.537248
0.372121
0.207145
0.0463928
2.50699
2.77061
0.916822
0.993767
0.862934
0.701925
0.537283
0.372137
0.207258
0.0472102
2.49542
2.6796
1.02716
1.00394
0.864207
0.702152
0.537324
0.37215
0.207337
0.0477423
2.48191
2.60539
1.11804
1.0148
0.865684
0.702405
0.537367
0.372161
0.207377
0.0480046
2.46597
2.54432
1.19315
1.0258
0.86729
0.702675
0.537413
0.372168
0.207378
0.0480047
2.45003
2.49335
1.25517
1.03651
0.868947
0.70295
0.537458
0.37217
0.207339
0.0477426
2.43768
2.45021
1.30612
1.04658
0.870581
0.703219
0.537501
0.372169
0.207261
0.0472107
2.42937
2.4135
1.34756
1.05573
0.872125
0.703472
0.53754
0.372163
0.20715
0.0463934
2.42196
2.38251
1.38071
1.06375
0.873517
0.703697
0.537573
0.372155
0.207009
0.0452665
2.41367
2.35689
1.40654
1.07047
0.874704
0.703886
0.5376
0.372144
0.206849
0.0437964
2.40577
2.33627
1.42577
1.0758
0.875644
0.704029
0.537618
0.372132
0.20668
0.0419386
2.40176
2.32089
1.43908
1.07961
0.8763
0.70412
0.537627
0.372119
0.206518
0.0396354
2.40447
2.31134
1.44703
1.08183
0.876639
0.704153
0.537625
0.372109
0.206381
0.036813
2.41005
2.30793
1.44994
1.0824
0.876637
0.704124
0.537613
0.3721
0.206297
0.0332673
0
0
0.713533
1.01559
0.862406
0.701564
0.537215
0.372029
0.205967
0.0296762
0
0
0.720283
1.00842
0.861932
0.701493
0.5372
0.372029
0.206047
0.033164
0
0
0.670475
1.00584
0.861597
0.701465
0.537194
0.372036
0.206179
0.0359362
0
0
0.718238
0.997463
0.861377
0.701478
0.537197
0.372047
0.206338
0.0382006
2.5578
2.98987
0.597645
0.98835
0.861356
0.701534
0.537209
0.372062
0.206504
0.0400304
2.54774
2.8873
0.730448
0.985964
0.861642
0.701634
0.537228
0.372078
0.206662
0.0414809
2.53205
2.78663
0.857985
0.991041
0.862279
0.701777
0.537255
0.372094
0.206801
0.0425945
2.51258
2.70082
0.967384
0.99857
0.863236
0.70196
0.537288
0.372109
0.206913
0.0434032
2.49029
2.62773
1.06069
1.00765
0.86446
0.702177
0.537326
0.372122
0.206991
0.04393
2.46678
2.56542
1.14009
1.01761
0.865884
0.70242
0.537367
0.372132
0.207031
0.0441898
2.44559
2.51217
1.20739
1.02788
0.867435
0.702679
0.537409
0.372138
0.207031
0.0441899
2.42863
2.4667
1.26408
1.038
0.869039
0.702943
0.537452
0.37214
0.206992
0.0439302
2.41677
2.42796
1.31141
1.04761
0.870625
0.703203
0.537492
0.372138
0.206915
0.0434035
2.41045
2.39516
1.35042
1.0564
0.872125
0.703447
0.537529
0.372132
0.206804
0.0425948
2.40939
2.36776
1.38199
1.06414
0.873479
0.703664
0.53756
0.372123
0.206666
0.0414812
2.41231
2.34535
1.40687
1.07066
0.874633
0.703845
0.537585
0.372112
0.206507
0.0400306
2.41628
2.32792
1.42566
1.07581
0.875543
0.703982
0.537602
0.372099
0.206341
0.0382006
2.42047
2.31557
1.43885
1.0795
0.876174
0.704069
0.537609
0.372087
0.206181
0.0359359
2.42485
2.30821
1.44681
1.08165
0.876499
0.7041
0.537608
0.372076
0.206047
0.0331633
2.42866
2.30596
1.44977
1.08219
0.876493
0.704069
0.537595
0.372068
0.205965
0.0296749
0
0
0.729702
1.01923
0.862949
0.701671
0.537237
0.372016
0.205714
0.0245027
0
0
0.736046
1.01143
0.862496
0.701605
0.537223
0.372016
0.205787
0.0276296
0
0
0.702551
1.00812
0.862117
0.701573
0.537217
0.372023
0.205913
0.0302901
0
0
0.716038
0.999067
0.861858
0.701578
0.537218
0.372033
0.206068
0.032493
2.57233
2.81211
0.752389
0.993256
0.861804
0.701622
0.537227
0.372047
0.206231
0.0342873
2.56366
2.76826
0.83486
0.992348
0.862043
0.701708
0.537244
0.372062
0.206387
0.0357167
2.54838
2.71146
0.92283
0.995603
0.862606
0.701836
0.537267
0.372078
0.206525
0.0368176
2.52794
2.65164
1.00781
1.00171
0.863481
0.702003
0.537296
0.372092
0.206636
0.0376187
2.50583
2.59389
1.086
1.00975
0.864622
0.702203
0.53733
0.372104
0.206713
0.0381412
2.48462
2.54077
1.15589
1.01895
0.865968
0.702429
0.537367
0.372113
0.206752
0.038399
2.46561
2.49332
1.21711
1.02866
0.867449
0.702673
0.537406
0.372118
0.206753
0.038399
2.44988
2.45178
1.26987
1.03837
0.868991
0.702923
0.537445
0.372119
0.206714
0.0381412
2.43834
2.41605
1.31465
1.04767
0.870524
0.703169
0.537482
0.372116
0.206637
0.0376187
2.4314
2.38585
1.35201
1.05624
0.87198
0.7034
0.537515
0.37211
0.206527
0.0368175
2.42875
2.36091
1.38256
1.06383
0.873296
0.703607
0.537544
0.3721
0.206389
0.0357165
2.42998
2.34097
1.40684
1.07023
0.874421
0.703779
0.537566
0.372088
0.206232
0.0342869
2.43449
2.32587
1.42534
1.0753
0.875309
0.703909
0.537581
0.372076
0.206068
0.0324924
2.44046
2.31542
1.43845
1.07895
0.875925
0.703991
0.537587
0.372063
0.205912
0.0302891
2.44522
2.30947
1.4465
1.08109
0.876245
0.70402
0.537585
0.372053
0.205784
0.0276281
2.44818
2.30772
1.44953
1.08167
0.876251
0.703993
0.537573
0.372045
0.20571
0.0245007

VECTORS velocity float
0 0 0
0 0 0
0.880731 -0.0344121 0.000652247
0.727151 -0.00454279 7.98733e-05
0.780663 -0.000856043 1.53444e-05
0.790967 -0.000183498 3.0949e-06
0.793201 -4.18514e-05 6.35387e-07
0.793719 -1.00143e-05 -3.79188e-07
0.793924 -6.63946e-06 -7.40166e-06
0.796639 -0.000184945 -0.000152411
0 0 0
0 0 0
-0.198212 -0.103257 0.000652188
0.731703 -0.0140369 7.05114e-05
0.789316 -0.00256509 1.55534e-05
0.799586 -0.000550399 3.18282e-06
0.80182 -0.000125621 6.56959e-07
0.802338 -3.0039e-05 -3.80203e-07
0.802532 -1.86819e-05 -7.57518e-06
0.803167 -0.000343299 -0.000161856
0 0 0
0 0 0
0.89179 -0.173539 0.00124007
0.74374 -0.0228883 5.00506e-05
0.790301 -0.0042062 1.41897e-05
0.799826 -0.000906772 3.01983e-06
0.801935 -0.000207299 6.3039e-07
0.802426 -4.95097e-05 -3.89527e-07
0.802599 -2.7903e-05 -7.68997e-06
0.803235 -0.000290052 -0.000165203
0 0 0
0 0 0
-0.18286 -0.245238 0.000491759
0.748554 -0.0304196 5.02832e-05
0.791557 -0.00569504 1.30194e-05
0.800062 -0.00123733 2.75166e-06
0.801986 -0.000283601 5.79024e-07
0.802437 -6.76261e-05 -4.04394e-07
0.80259 -3.42012e-05 -7.77429e-06
0.80325 -0.000239589 -0.000167043
0.486011 -0.0211038 -0.0446336
0.999043 -0.00223241 -0.0113306
0.910319 -0.2668 0.00492736
0.765081 -0.0363578 0.000158523
0.793176 -0.00698383 1.23719e-05
0.800362 -0.00153291 2.409e-06
0.802052 -0.000352531 5.08539e-07
0.802451 -8.39162e-05 -4.23283e-07
0.802583 -3.80371e-05 -7.83563e-06
0.803263 -0.000194508 -0.000168093
0.538933 -0.0566126 -0.0499202
1.01076 -0.00773691 -0.00909146
0.92716 -0.238034 0.00339972
0.777908 -0.0400158 0.000197109
0.795007 -0.00803467 1.11178e-05
0.800718 -0.00178582 2.00143e-06
0.80213 -0.000412348 4.22302e-07
0.802469 -9.79778e-05 -4.45361e-07
0.802578 -3.97965e-05 -7.881e-06
0.803274 -0.000154056 -0.000168711
0.582049 -0.0782205 -0.0569158
1.00344 -0.0135877 -0.00779939
0.925992 -0.210273 0.00188111
0.788722 -0.0419304 0.00013357
0.79696 -0.00882902 8.6451e-06
0.801118 -0.00199003 1.54511e-06
0.802219 -0.000461577 3.24234e-07
0.802488 -0.000109476 -4.69809e-07
0.802577 -3.97937e-05 -7.91472e-06
0.803282 -0.00011734 -0.00016908
0.618941 -0.0859636 -0.0642611
0.997932 -0.0178144 -0.00716121
0.924707 -0.184949 0.00101998
0.798095 -0.0424256 8.42679e-05
0.798963 -0.00936065 5.90953e-06
0.801547 -0.00214115 1.0621e-06
0.802316 -0.000499044 2.17927e-07
0.80251 -0.000118149 -4.95886e-07
0.802578 -3.82923e-05 -7.93965e-06
0.803289 -8.34555e-05 -0.000169301
0.649027 -0.0813393 -0.070999
0.993652 -0.0201462 -0.00688666
0.923583 -0.162013 0.000478261
0.806243 -0.0417812 4.71786e-05
0.800954 -0.00963328 3.1906e-06
0.801996 -0.00223652 5.70743e-07
0.802419 -0.0005239 1.06758e-07
0.802534 -0.000123811 -5.22878e-07
0.80258 -3.55233e-05 -7.95757e-06
0.803295 -5.15215e-05 -0.000169426
0.671863 -0.0665345 -0.0765034
0.989956 -0.0206315 -0.00679363
0.92258 -0.141248 0.000130891
0.813296 -0.040222 1.93784e-05
0.802886 -0.00965768 6.56554e-07
0.802451 -0.00227505 8.62445e-08
0.802526 -0.000535633 -6.13207e-09
0.802559 -0.000126355 -5.5008e-07
0.802585 -3.17015e-05 -7.96949e-06
0.803298 -2.06877e-05 -0.000169484