# vtk DataFile Version 2.0
TestTestTest
ASCII

DATASET STRUCTURED_GRID
DIMENSIONS 11 21 11
POINTS 2541 float
0 0 0
0.5 0 0
1 0 0
1.5 0 0
2 0 0
2.5 0 0
3 0 0
3.5 0 0
4 0 0
4.5 0 0
5 0 0
0 0.05 0
0.5 0.05 0
1 0.05 0
1.5 0.05 0
2 0.05 0
2.5 0.05 0
3 0.05 0
3.5 0.05 0
4 0.05 0
4.5 0.05 0
5 0.05 0
0 0.1 0
0.5 0.1 0
1 0.1 0
1.5 0.1 0
2 0.1 0
2.5 0.1 0
3 0.1 0
3.5 0.1 0
4 0.1 0
4.5 0.1 0
5 0.1 0
0 0.15 0
0.5 0.15 0
1 0.15 0
1.5 0.15 0
2 0.15 0
2.5 0.15 0
3 0.15 0
3.5 0.15 0
4 0.15 0
4.5 0.15 0
5 0.15 0
0 0.2 0
0.5 0.2 0
1 0.2 0
1.5 0.2 0
2 0.2 0
2.5 0.2 0
3 0.2 0
3.5 0.2 0
4 0.2 0
4.5 0.2 0
5 0.2 0
0 0.25 0
0.5 0.25 0
1 0.25 0
1.5 0.25 0
2 0.25 0
2.5 0.25 0
3 0.25 0
3.5 0.25 0
4 0.25 0
4.5 0.25 0
5 0.25 0
0 0.3 0
0.5 0.3 0
1 0.3 0
1.5 0.3 0
2 0.3 0
2.5 0.3 0
3 0.3 0
3.5 0.3 0
4 0.3 0
4.5 0.3 0
5 0.3 0
0 0.35 0
0.5 0.35 0
1 0.35 0
1.5 0.35 0
2 0.35 0
2.5 0.35 0
3 0.35 0
3.5 0.35 0
4 0.35 0
4.5 0.35 0
5 0.35 0
0 0.4 0
0.5 0.4 0
1 0.4 0
1.5 0.4 0
2 0.4 0
2.5 0.4 0
3 0.4 0
3.5 0.4 0
4 0.4 0
4.5 0.4 0
5 0.4 0
0 0.45 0
0.5 0.45 0
1 0.45 0
1.5 0.45 0
2 0.45 0
2.5 0.45 0
3 0.45 0
3.5 0.45 0
4 0.45 0
4.5 0.45 0
5 0.45 0
0 0.5 0
0.5 0.5 0
1 0.5 0
1.5 0.5 0
2 0.5 0
2.5 0.5 0
3 0.5 0
3.5 0.5 0
4 0.5 0
4.5 0.5 0
5 0.5 0
0 0.55 0
0.5 0.55 0
1 0.55 0
1.5 0.55 0
2 0.55 0
2.5 0.55 0
3 0.55 0
3.5 0.55 0
4 0.55 0
4.5 0.55 0
5 0.55 0
0 0.6 0
0.5 0.6 0
1 0.6 0
1.5 0.6 0
2 0.6 0
2.5 0.6 0
3 0.6 0
3.5 0.6 0
4 0.6 0
4.5 0.6 0
5 0.6 0
0 0.65 0
0.5 0.65 0
1 0.65 0
1.5 0.65 0
2 0.65 0
2.5 0.65 0
3 0.65 0
3.5 0.65 0
4 0.65 0
4.5 0.65 0
5 0.65 0
0 0.7 0
0.5 0.7 0
1 0.7 0
1.5 0.7 0
2 0.7 0
2.5 0.7 0
3 0.7 0
3.5 0.7 0
4 0.7 0
4.5 0.7 0
5 0.7 0
0 0.75 0
0.5 0.75 0
1 0.75 0
1.5 0.75 0
2 0.75 0
2.5 0.75 0
3 0.75 0
3.5 0.75 0
4 0.75 0
4.5 0.75 0
5 0.75 0
0 0.8 0
0.5 0.8 0
1 0.8 0
1.5 0.8 0
2 0.8 0
2.5 0.8 0
3 0.8 0
3.5 0.8 0
4 0.8 0
4.5 0.8 0
5 0.8 0
0 0.85 0
0.5 0.85 0
1 0.85 0
1.5 0.85 0
2 0.85 0
2.5 0.85 0
3 0.85 0
3.5 0.85 0
4 0.85 0
4.5 0.85 0
5 0.85 0
0 0.9 0
0.5 0.9 0
1 0.9 0
1.5 0.9 0
2 0.9 0
2.5 0.9 0
3 0.9 0
3.5 0.9 0
4 0.9 0
4.5 0.9 0
5 0.9 0
0 0.95 0
0.5 0.95 0
1 0.95 0
1.5 0.95 0
2 0.95 0
2.5 0.95 0
3 0.95 0
3.5 0.95 0
4 0.95 0
4.5 0.95 0
5 0.95 0
0 1 0
0.5 1 0
1 1 0
1.5 1 0
2 1 0
2.5 1 0
3 1 0
3.5 1 0
4 1 0
4.5 1 0
5 1 0
0 0 0.1
0.5 0 0.1
1 0 0.1
1.5 0 0.1
2 0 0.1
2.5 0 0.1
3 0 0.1
3.5 0 0.1
4 0 0.1
4.5 0 0.1
5 0 0.1
0 0.05 0.1
0.5 0.05 0.1
1 0.05 0.1
1.5 0.05 0.1
2 0.05 0.1
2.5 0.05 0.1
3 0.05 0.1
3.5 0.05 0.1
4 0.05 0.1
4.5 0.05 0.1
5 0.05 0.1
0 0.1 0.1
0.5 0.1 0.1
1 0.1 0.1
1.5 0.1 0.1
2 0.1 0.1
2.5 0.1 0.1
3 0.1 0.1
3.5 0.1 0.1
4 0.1 0.1
4.5 0.1 0.1
5 0.1 0.1
0 0.15 0.1
0.5 0.15 0.1
1 0.15 0.1
1.5 0.15 0.1
2 0.15 0.1
2.5 0.15 0.1
3 0.15 0.1
3.5 0.15 0.1
4 0.15 0.1
4.5 0.15 0.1
5 0.15 0.1
0 0.2 0.1
0.5 0.2 0.1
1 0.2 0.1
1.5 0.2 0.1
2 0.2 0.1
2.5 0.2 0.1
3 0.2 0.1
3.5 0.2 0.1
4 0.2 0.1
4.5 0.2 0.1
5 0.2 0.1
0 0.25 0.1
0.5 0.25 0.1
1 0.25 0.1
1.5 0.25 0.1
2 0.25 0.1
2.5 0.25 0.1
3 0.25 0.1
3.5 0.25 0.1
4 0.25 0.1
4.5 0.25 0.1
5 0.25 0.1
0 0.3 0.1
0.5 0.3 0.1
1 0.3 0.1
1.5 0.3 0.1
2 0.3 0.1
2.5 0.3 0.1
3 0.3 0.1
3.5 0.3 0.1
4 0.3 0.1
4.5 0.3 0.1
5 0.3 0.1
0 0.35 0.1
0.5 0.35 0.1
1 0.35 0.1
1.5 0.35 0.1
2 0.35 0.1
2.5 0.35 0.1
3 0.35 0.1
3.5 0.35 0.1
4 0.35 0.1
4.5 0.35 0.1
5 0.35 0.1
0 0.4 0.1
0.5 0.4 0.1
1 0.4 0.1
1.5 0.4 0.1
2 0.4 0.1
2.5 0.4 0.1
3 0.4 0.1
3.5 0.4 0.1
4 0.4 0.1
4.5 0.4 0.1
5 0.4 0.1
0 0.45 0.1
0.5 0.45 0.1
1 0.45 0.1
1.5 0.45 0.1
2 0.45 0.1
2.5 0.45 0.1
3 0.45 0.1
3.5 0.45 0.1
4 0.45 0.1
4.5 0.45 0.1
5 0.45 0.1
0 0.5 0.1
0.5 0.5 0.1
1 0.5 0.1
1.5 0.5 0.1
2 0.5 0.1
2.5 0.5 0.1
3 0.5 0.1
3.5 0.5 0.1
4 0.5 0.1
4.5 0.5 0.1
5 0.5 0.1
0 0.55 0.1
0.5 0.55 0.1
1 0.55 0.1
1.5 0.55 0.1
2 0.55 0.1
2.5 0.55 0.1
3 0.55 0.1
3.5 0.55 0.1
4 0.55 0.1
4.5 0.55 0.1
5 0.55 0.1
0 0.6 0.1
0.5 0.6 0.1
1 0.6 0.1
1.5 0.6 0.1
2 0.6 0.1
2.5 0.6 0.1
3 0.6 0.1
3.5 0.6 0.1
4 0.6 0.1
4.5 0.6 0.1
5 0.6 0.1
0 0.65 0.1
0.5 0.65 0.1
1 0.65 0.1
1.5 0.65 0.1
2 0.65 0.1
2.5 0.65 0.1
3 0.65 0.1
3.5 0.65 0.1
4 0.65 0.1
4.5 0.65 0.1
5 0.65 0.1
0 0.7 0.1
0.5 0.7 0.1
1 0.7 0.1
1.5 0.7 0.1
2 0.7 0.1
2.5 0.7 0.1
3 0.7 0.1
3.5 0.7 0.1
4 0.7 0.1
4.5 0.7 0.1
5 0.7 0.1
0 0.75 0.1
0.5 0.75 0.1
1 0.75 0.1
1.5 0.75 0.1
2 0.75 0.1
2.5 0.75 0.1
3 0.75 0.1
3.5 0.75 0.1
4 0.75 0.1
4.5 0.75 0.1
5 0.75 0.1
0 0.8 0.1
0.5 0.8 0.1
1 0.8 0.1
1.5 0.8 0.1
2 0.8 0.1
2.5 0.8 0.1
3 0.8 0.1
3.5 0.8 0.1
4 0.8 0.1
4.5 0.8 0.1
5 0.8 0.1
0 0.85 0.1
0.5 0.85 0.1
1 0.85 0.1
1.5 0.85 0.1
2 0.85 0.1
2.5 0.85 0.1
3 0.85 0.1
3.5 0.85 0.1
4 0.85 0.1
4.5 0.85 0.1
5 0.85 0.1
0 0.9 0.1
0.5 0.9 0.1
1 0.9 0.1
1.5 0.9 0.1
2 0.9 0.1
2.5 0.9 0.1
3 0.9 0.1
3.5 0.9 0.1
4 0.9 0.1
4.5 0.9 0.1
5 0.9 0.1
0 0.95 0.1
0.5 0.95 0.1
1 0.95 0.1
1.5 0.95 0.1
2 0.95 0.1
2.5 0.95 0.1
3 0.95 0.1
3.5 0.95 0.1
4 0.95 0.1
4.5 0.95 0.1
5 0.95 0.1
0 1 0.1
0.5 1 0.1
1 1 0.1
1.5 1 0.1
2 1 0.1
2.5 1 0.1
3 1 0.1
3.5 1 0.1
4 1 0.1
4.5 1 0.1
5 1 0.1
0 0 0.2
0.5 0 0.2
1 0 0.2
1.5 0 0.2
2 0 0.2
2.5 0 0.2
3 0 0.2
3.5 0 0.2
4 0 0.2
4.5 0 0.2
5 0 0.2
0 0.05 0.2
0.5 0.05 0.2
1 0.05 0.2
1.5 0.05 0.2
2 0.05 0.2
2.5 0.05 0.2
3 0.05 0.2
3.5 0.05 0.2
4 0.05 0.2
4.5 0.05 0.2
5 0.05 0.2
0 0.1 0.2
0.5 0.1 0.2
1 0.1 0.2
1.5 0.1 0.2
2 0.1 0.2
2.5 0.1 0.2
3 0.1 0.2
3.5 0.1 0.2
4 0.1 0.2
4.5 0.1 0.2
5 0.1 0.2
0 0.15 0.2
0.5 0.15 0.2
1 0.15 0.2
1.5 0.15 0.2
2 0.15 0.2
2.5 0.15 0.2
3 0.15 0.2
3.5 0.15 0.2
4 0.15 0.2
4.5 0.15 0.2
5 0.15 0.2
0 0.2 0.2
0.5 0.2 0.2
1 0.2 0.2
1.5 0.2 0.2
2 0.2 0.2
2.5 0.2 0.2
3 0.2 0.2
3.5 0.2 0.2
4 0.2 0.2
4.5 0.2 0.2
5 0.2 0.2
0 0.25 0.2
0.5 0.25 0.2
1 0.25 0.2
1.5 0.25 0.2
2 0.25 0.2
2.5 0.25 0.2
3 0.25 0.2
3.5 0.25 0.2
4 0.25 0.2
4.5 0.25 0.2
5 0.25 0.2
0 0.3 0.2
0.5 0.3 0.2
1 0.3 0.2
1.5 0.3 0.2
2 0.3 0.2
2.5 0.3 0.2
3 0.3 0.2
3.5 0.3 0.2
4 0.3 0.2
4.5 0.3 0.2
5 0.3 0.2
0 0.35 0.2
0.5 0.35 0.2
1 0.35 0.2
1.5 0.35 0.2
2 0.35 0.2
2.5 0.35 0.2
3 0.35 0.2
3.5 0.35 0.2
4 0.35 0.2
4.5 0.35 0.2
5 0.35 0.2
0 0.4 0.2
0.5 0.4 0.2
1 0.4 0.2
1.5 0.4 0.2
2 0.4 0.2
2.5 0.4 0.2
3 0.4 0.2
3.5 0.4 0.2
4 0.4 0.2
4.5 0.4 0.2
5 0.4 0.2
0 0.45 0.2
0.5 0.45 0.2
1 0.45 0.2
1.5 0.45 0.2
2 0.45 0.2
2.5 0.45 0.2
3 0.45 0.2
3.5 0.45 0.2
4 0.45 0.2
4.5 0.45 0.2
5 0.45 0.2
0 0.5 0.2
0.5 0.5 0.2
1 0.5 0.2
1.5 0.5 0.2
2 0.5 0.2
2.5 0.5 0.2
3 0.5 0.2
3.5 0.5 0.2
4 0.5 0.2
4.5 0.5 0.2
5 0.5 0.2
0 0.55 0.2
0.5 0.55 0.2
1 0.55 0.2
1.5 0.55 0.2
2 0.55 0.2
2.5 0.55 0.2
3 0.55 0.2
3.5 0.55 0.2
4 0.55 0.2
4.5 0.55 0.2
5 0.55 0.2
0 0.6 0.2
0.5 0.6 0.2
1 0.6 0.2
1.5 0.6 0.2
2 0.6 0.2
2.5 0.6 0.2
3 0.6 0.2
3.5 0.6 0.2
4 0.6 0.2
4.5 0.6 0.2
5 0.6 0.2
0 0.65 0.2
0.5 0.65 0.2
1 0.65 0.2
1.5 0.65 0.2
2 0.65 0.2
2.5 0.65 0.2
3 0.65 0.2
3.5 0.65 0.2
4 0.65 0.2
4.5 0.65 0.2
5 0.65 0.2
0 0.7 0.2
0.5 0.7 0.2
1 0.7 0.2
1.5 0.7 0.2
2 0.7 0.2
2.5 0.7 0.2
3 0.7 0.2
3.5 0.7 0.2
4 0.7 0.2
4.5 0.7 0.2
5 0.7 0.2
0 0.75 0.2
0.5 0.75 0.2
1 0.75 0.2
1.5 0.75 0.2
2 0.75 0.2
2.5 0.75 0.2
3 0.75 0.2
3.5 0.75 0.2
4 0.75 0.2
4.5 0.75 0.2
5 0.75 0.2
0 0.8 0.2
0.5 0.8 0.2
1 0.8 0.2
1.5 0.8 0.2
2 0.8 0.2
2.5 0.8 0.2
3 0.8 0.2
3.5 0.8 0.2
4 0.8 0.2
4.5 0.8 0.2
5 0.8 0.2
0 0.85 0.2
0.5 0.85 0.2
1 0.85 0.2
1.5 0.85 0.2
2 0.85 0.2
2.5 0.85 0.2
3 0.85 0.2
3.5 0.85 0.2
4 0.85 0.2
4.5 0.85 0.2
5 0.85 0.2
0 0.9 0.2
0.5 0.9 0.2
1 0.9 0.2
1.5 0.9 0.2
2 0.9 0.2
2.5 0.9 0.2
3 0.9 0.2
3.5 0.9 0.2
4 0.9 0.2
4.5 0.9 0.2
5 0.9 0.2
0 0.95 0.2
0.5 0.95 0.2
1 0.95 0.2
1.5 0.95 0.2
2 0.95 0.2
2.5 0.95 0.2
3 0.95 0.2
3.5 0.95 0.2
4 0.95 0.2
4.5 0.95 0.2
5 0.95 0.2
0 1 0.2
0.5 1 0.2
1 1 0.2
1.5 1 0.2
2 1 0.2
2.5 1 0.2
3 1 0.2
3.5 1 0.2
4 1 0.2
4.5 1 0.2
5 1 0.2
0 0 0.3
0.5 0 0.3
1 0 0.3
1.5 0 0.3
2 0 0.3
2.5 0 0.3
3 0 0.3
3.5 0 0.3
4 0 0.3
4.5 0 0.3
5 0 0.3
0 0.05 0.3
0.5 0.05 0.3
1 0.05 0.3
1.5 0.05 0.3
2 0.05 0.3
2.5 0.05 0.3
3 0.05 0.3
3.5 0.05 0.3
4 0.05 0.3
4.5 0.05 0.3
5 0.05 0.3
0 0.1 0.3
0.5 0.1 0.3
1 0.1 0.3
1.5 0.1 0.3
2 0.1 0.3
2.5 0.1 0.3
3 0.1 0.3
3.5 0.1 0.3
4 0.1 0.3
4.5 0.1 0.3
5 0.1 0.3
0 0.15 0.3
0.5 0.15 0.3
1 0.15 0.3
1.5 0.15 0.3
2 0.15 0.3
2.5 0.15 0.3
3 0.15 0.3
3.5 0.15 0.3
4 0.15 0.3
4.5 0.15 0.3
5 0.15 0.3
0 0.2 0.3
0.5 0.2 0.3
1 0.2 0.3
1.5 0.2 0.3
2 0.2 0.3
2.5 0.2 0.3
3 0.2 0.3
3.5 0.2 0.3
4 0.2 0.3
4.5 0.2 0.3
5 0.2 0.3
0 0.25 0.3
0.5 0.25 0.3
1 0.25 0.3
1.5 0.25 0.3
2 0.25 0.3
2.5 0.25 0.3
3 0.25 0.3
3.5 0.25 0.3
4 0.25 0.3
4.5 0.25 0.3
5 0.25 0.3
0 0.3 0.3
0.5 0.3 0.3
1 0.3 0.3
1.5 0.3 0.3
2 0.3 0.3
2.5 0.3 0.3
3 0.3 0.3
3.5 0.3 0.3
4 0.3 0.3
4.5 0.3 0.3
5 0.3 0.3
0 0.35 0.3
0.5 0.35 0.3
1 0.35 0.3
1.5 0.35 0.3
2 0.35 0.3
2.5 0.35 0.3
3 0.35 0.3
3.5 0.35 0.3
4 0.35 0.3
4.5 0.35 0.3
5 0.35 0.3
0 0.4 0.3
0.5 0.4 0.3
1 0.4 0.3
1.5 0.4 0.3
2 0.4 0.3
2.5 0.4 0.3
3 0.4 0.3
3.5 0.4 0.3
4 0.4 0.3
4.5 0.4 0.3
5 0.4 0.3
0 0.45 0.3
0.5 0.45 0.3
1 0.45 0.3
1.5 0.45 0.3
2 0.45 0.3
2.5 0.45 0.3
3 0.45 0.3
3.5 0.45 0.3
4 0.45 0.3
4.5 0.45 0.3
5 0.45 0.3
0 0.5 0.3
0.5 0.5 0.3
1 0.5 0.3
1.5 0.5 0.3
2 0.5 0.3
2.5 0.5 0.3
3 0.5 0.3
3.5 0.5 0.3
4 0.5 0.3
4.5 0.5 0.3
5 0.5 0.3
0 0.55 0.3
0.5 0.55 0.3
1 0.55 0.3
1.5 0.55 0.3
2 0.55 0.3
2.5 0.55 0.3
3 0.55 0.3
3.5 0.55 0.3
4 0.55 0.3
4.5 0.55 0.3
5 0.55 0.3
0 0.6 0.3
0.5 0.6 0.3
1 0.6 0.3
1.5 0.6 0.3
2 0.6 0.3
2.5 0.6 0.3
3 0.6 0.3
3.5 0.6 0.3
4 0.6 0.3
4.5 0.6 0.3
5 0.6 0.3
0 0.65 0.3
0.5 0.65 0.3
1 0.65 0.3
1.5 0.65 0.3
2 0.65 0.3
2.5 0.65 0.3
3 0.65 0.3
3.5 0.65 0.3
4 0.65 0.3
4.5 0.65 0.3
5 0.65 0.3
0 0.7 0.3
0.5 0.7 0.3
1 0.7 0.3
1.5 0.7 0.3
2 0.7 0.3
2.5 0.7 0.3
3 0.7 0.3
3.5 0.7 0.3
4 0.7 0.3
4.5 0.7 0.3
5 0.7 0.3
0 0.75 0.3
0.5 0.75 0.3
1 0.75 0.3
1.5 0.75 0.3
2 0.75 0.3
2.5 0.75 0.3
3 0.75 0.3
3.5 0.75 0.3
4 0.75 0.3
4.5 0.75 0.3
5 0.75 0.3
0 0.8 0.3
0.5 0.8 0.3
1 0.8 0.3
1.5 0.8 0.3
2 0.8 0.3
2.5 0.8 0.3
3 0.8 0.3
3.5 0.8 0.3
4 0.8 0.3
4.5 0.8 0.3
5 0.8 0.3
0 0.85 0.3
0.5 0.85 0.3
1 0.85 0.3
1.5 0.85 0.3
2 0.85 0.3
2.5 0.85 0.3
3 0.85 0.3
3.5 0.85 0.3
4 0.85 0.3
4.5 0.85 0.3
5 0.85 0.3
0 0.9 0.3
0.5 0.9 0.3
1 0.9 0.3
1.5 0.9 0.3
2 0.9 0.3
2.5 0.9 0.3
3 0.9 0.3
3.5 0.9 0.3
4 0.9 0.3
4.5 0.9 0.3
5 0.9 0.3
0 0.95 0.3
0.5 0.95 0.3
1 0.95 0.3
1.5 0.95 0.3
2 0.95 0.3
2.5 0.95 0.3
3 0.95 0.3
3.5 0.95 0.3
4 0.95 0.3
4.5 0.95 0.3
5 0.95 0.3
0 1 0.3
0.5 1 0.3
1 1 0.3
1.5 1 0.3
2 1 0.3
2.5 1 0.3
3 1 0.3
3.5 1 0.3
4 1 0.3
4.5 1 0.3
5 1 0.3
0 0 0.4
[...]
CELL_DATA 2000
SCALARS pressure float 1
LOOKUP_TABLE default
0
0
0.87976
1.02866
0.849911
0.685756
0.523944
0.362722
0.200807
0.0244315
0
0
0.880351
1.02058
0.849276
0.685637
0.523917
0.362718
0.200857
0.0273097
0
0
0.841206
1.01604
0.84846
0.685491
0.523883
0.362716
0.200964
0.0298413
0
0
0.835873
1.00546
0.84755
0.685326
0.523843
0.362716
0.201101
0.0319397
1.88981
2.0516
0.852937
0.996603
0.846605
0.68515
0.5238
0.362716
0.201248
0.0336471
1.8841
2.03061
0.896759
0.991015
0.845734
0.68497
0.523753
0.362715
0.201389
0.0350061
1.87342
2.00251
0.947737
0.988444
0.845002
0.684792
0.523703
0.362712
0.201513
0.036052
1.85878
1.97274
0.998892
0.988116
0.84444
0.684621
0.523652
0.362707
0.201612
0.0368126
1.84324
1.94403
1.04617
0.989409
0.84405
0.684461
0.523601
0.362698
0.20168
0.0373082
1.82902
1.91769
1.08847
0.991802
0.843814
0.684314
0.523549
0.362685
0.201712
0.0375522
1.81708
1.89425
1.12551
0.994869
0.843706
0.684179
0.523498
0.362669
0.201707
0.0375513
1.80808
1.87381
1.15738
0.998263
0.843695
0.684057
0.523448
0.36265
0.201666
0.0373055
1.80264
1.85628
1.18435
1.00171
0.843745
0.683945
0.5234
0.362627
0.201589
0.0368082
1.80095
1.84153
1.20676
1.00498
0.843826
0.683842
0.523354
0.362602
0.201482
0.0360459
1.80273
1.82942
1.22497
1.0079
0.843904
0.683745
0.52331
0.362577
0.20135
0.0349984
1.80766
1.81987
1.23931
1.01034
0.843955
0.683653
0.523269
0.362551
0.201201
0.033638
1.81516
1.81282
1.25007
1.01219
0.843954
0.683563
0.523231
0.362528
0.201047
0.0319293
1.82332
1.80819
1.25751
1.01338
0.843884
0.683474
0.523197
0.362507
0.200905
0.0298297
1.82943
1.80599
1.26184
1.01387
0.843736
0.683387
0.523167
0.362491
0.200794
0.0272971
1.83275
1.8059
1.26307
1.01365
0.843518
0.683306
0.523143
0.362481
0.20074
0.0244182
0
0
0.884337
1.02425
0.84952
0.68567
0.523926
0.362733
0.201033
0.0292969
0
0
0.883841
1.01742
0.848776
0.685533
0.523895
0.362729
0.201096
0.0328385
0
0
0.842193
1.01334
0.848007
0.685388
0.523861
0.362728
0.201218
0.0354816
0
0
0.86439
1.00512
0.847124
0.68523
0.523823
0.362729
0.201364
0.0376341
1.87271
2.1059
0.782407
0.994039
0.846217
0.685064
0.523781
0.36273
0.201517
0.0393746
1.86609
2.08711
0.836324
0.986695
0.845387
0.684897
0.523737
0.36273
0.201662
0.0407541
1.85569
2.03825
0.908948
0.985159
0.844723
0.684734
0.523691
0.362728
0.201788
0.0418129
1.84259
1.99611
0.974413
0.985984
0.84424
0.68458
0.523644
0.362724
0.201888
0.0425815
1.82756
1.96025
1.03107
0.9881
0.843929
0.684436
0.523597
0.362716
0.201957
0.0430817
1.81219
1.92978
1.07931
0.991079
0.843766
0.684305
0.523549
0.362704
0.20199
0.0433279
1.79923
1.90372
1.12016
0.994564
0.843724
0.684187
0.523502
0.362689
0.201985
0.0433271
1.78976
1.88145
1.15449
0.998258
0.843769
0.684079
0.523456
0.36267
0.201944
0.0430792
1.78417
1.86245
1.18306
1.00192
0.843869
0.683982
0.523411
0.362649
0.201867
0.0425774
1.78266
1.84635
1.20649
1.00534
0.84399
0.683891
0.523368
0.362625
0.201758
0.0418073
1.78519
1.83287
1.22531
1.00838
0.844103
0.683805
0.523327
0.362599
0.201624
0.040747
1.79104
1.82178
1.23996
1.01089
0.844181
0.683722
0.523289
0.362574
0.201472
0.039366
1.79779
1.81313
1.25083
1.01279
0.844201
0.683639
0.523253
0.36255
0.201313
0.0376244
1.80423
1.8071
1.25822
1.01401
0.844147
0.683555
0.52322
0.362529
0.201161
0.0354707
1.81001
1.80385
1.26238
1.01449
0.844003
0.68347
0.52319
0.362513
0.201034
0.0328267
1.81449
1.80386
1.2634
1.01416
0.843742
0.683375
0.523163
0.362502
0.200968
0.0292842
0
0
0.890161
1.02175
0.849269
0.685604
0.523911
0.362756
0.201349
0.0327707
0
0
0.887614
1.01599
0.848537
0.685466
0.52388
0.362753
0.201418
0.0364119
0
0
0.853974
1.01305
0.847817
0.685325
0.523847
0.362752
0.201547
0.0391221
0
0
0.877076
1.00661
0.847004
0.685174
0.52381
0.362753
0.201699
0.0413221
1.85644
2.12395
0.749385
0.995263
0.846133
0.685016
0.52377
0.362755
0.201856
0.0430951
1.84883
2.14364
0.764419
0.984982
0.845284
0.684856
0.523728
0.362756
0.202005
0.044497
1.84036
2.08962
0.859658
0.981438
0.844576
0.684701
0.523685
0.362755
0.202134
0.0455709
1.83488
2.03405
0.943454
0.982707
0.844081
0.684555
0.52364
0.362752
0.202237
0.0463493
1.83065
1.98875
1.01096
0.985604
0.84379
0.684421
0.523595
0.362745
0.202306
0.0468555
1.8255
1.95161
1.06643
0.989236
0.843662
0.684299
0.52355
0.362734
0.20234
0.0471045
1.81886
1.92106
1.11221
0.993246
0.843658
0.68419
0.523506
0.362719
0.202335
0.0471037
1.81173
1.89565
1.14993
0.997357
0.843742
0.684093
0.523463
0.362701
0.202293
0.0468532
1.80595
1.87429
1.18083
1.00134
0.84388
0.684004
0.523421
0.36268
0.202216
0.0463454
1.80165
1.85629
1.20582
1.00503
0.844036
0.683922
0.52338
0.362656
0.202105
0.0455656
1.79728
1.84121
1.22565
1.00826
0.844179
0.683844
0.523341
0.362631
0.201969
0.0444902
1.79229
1.82871
1.24084
1.01093
0.844285
0.683767
0.523304
0.362606
0.201813
0.043087
1.78775
1.81838
1.25182
1.01297
0.844331
0.68369
0.52327
0.362582
0.20165
0.0413127
1.78642
1.81042
1.25909
1.01428
0.844297
0.68361
0.523237
0.362561
0.201492
0.0391117
1.79051
1.80565
1.26309
1.0148
0.844161
0.683525
0.523208
0.362544
0.201359
0.0364005
1.79653
1.80493
1.26398
1.01447
0.843898
0.68343
0.52318
0.362533
0.201286
0.0327585
0
0
0.890202
1.021
0.849144
0.685563
0.523903
0.362779
0.201619
0.034934
0
0
0.88682
1.01555
0.848428
0.685427
0.523871
0.362776
0.20169
0.0385964
0
0
0.85163
1.01313
0.847741
0.685288
0.523839
0.362776
0.201821
0.0413313
0
0
0.868052
1.00737
0.846974
0.685142
0.523803
0.362778
0.201977
0.0435536
1.8486
2.15248
0.736337
0.996366
0.846154
0.684991
0.523764
0.36278
0.202137
0.0453449
1.84085
2.17808
0.732388
0.985668
0.845338
0.684838
0.523724
0.362781
0.202288
0.0467609
1.83467
2.12556
0.822383
0.980905
0.844606
0.684688
0.523682
0.362781
0.202419
0.0478452
1.83582
2.06443
0.916933
0.981306
0.844049
0.684545
0.523638
0.362778
0.202523
0.0486308
1.84401
2.0132
0.993627
0.983987
0.843712
0.684413
0.523595
0.362772
0.202593
0.0491416
1.85423
1.97063
1.05515
0.98767
0.843563
0.684294
0.523552
0.362762
0.202627
0.0493928
1.86054
1.93456
1.10515
0.991834
0.843554
0.684189
0.523509
0.362748
0.202623
0.049392
1.86036
1.90452
1.14599
0.996149
0.843645
0.684095
0.523467
0.36273
0.202581
0.0491393
1.85443
1.88063
1.17921
1.00036
0.843795
0.68401
0.523427
0.362709
0.202502
0.0486271
1.84277
1.8622
1.20574
1.00427
0.843974
0.683933
0.523388
0.362685
0.202391
0.04784
1.82489
1.8475
1.22628
1.00777
0.844152
0.683861
0.52335
0.36266
0.202252
0.0467544
1.80389
1.83474
1.24163
1.01069
0.844298
0.68379
0.523315
0.362635
0.202095
0.0453371
1.78649
1.82354
1.25259
1.0129
0.844376
0.683718
0.523281
0.362611
0.201928
0.0435446
1.77844
1.81447
1.25979
1.01432
0.844363
0.683642
0.52325
0.36259
0.201768
0.0413212
1.78043
1.80861
1.26369
1.0149
0.844239
0.683559
0.52322
0.362573
0.201631
0.0385853
1.78689
1.8073
1.26451
1.01458
0.843981
0.683464
0.523193
0.362561
0.201557
0.0349221
0
0
0.88838
1.02078
0.849096
0.685544
0.523898
0.362793
0.20177
0.0359655
0
0
0.884207
1.01542
0.848387
0.685408
0.523868
0.36279
0.201841
0.0396334
0
0
0.847194
1.01316
0.847716
0.685272
0.523835
0.36279
0.201974
0.0423763
0
0
0.861252
1.00761
0.846971
0.685128
0.5238
0.362792
0.20213
0.044607
1.84595
2.16846
0.727828
0.996778
0.846175
0.68498
0.523762
0.362795
0.202292
0.0464059
1.83829
2.19513
0.72224
0.986131
0.845383
0.684831
0.523722
0.362797
0.202444
0.0478283
1.83411
2.14274
0.808218
0.981348
0.844672
0.684685
0.523681
0.362797
0.202576
0.0489175
1.84006
2.08044
0.902161
0.981619
0.84412
0.684545
0.523638
0.362794
0.202681
0.0497067
1.85535
2.02678
0.982016
0.98391
0.843747
0.684414
0.523596
0.362788
0.202752
0.0502197
1.87462
1.98094
1.04788
0.987104
0.843536
0.684293
0.523553
0.362778
0.202786
0.0504721
1.89047
1.94131
1.10142
0.990929
0.843472
0.684185
0.523511
0.362764
0.202782
0.0504713
1.89606
1.90793
1.14457
0.995149
0.843535
0.684091
0.52347
0.362747
0.202739
0.0502175
1.89
1.88252
1.17896
0.999499
0.843694
0.684008
0.52343
0.362726
0.20266
0.049703
1.87231
1.86447
1.20591
1.00368
0.843905
0.683935
0.523392
0.362702
0.202548
0.0489124
1.8446
1.85041
1.22659
1.0074
0.844117
0.683867
0.523355
0.362677
0.202409
0.0478218
1.81424
1.83803
1.24202
1.01048
0.844288
0.6838
0.52332
0.362652
0.20225
0.0463982
1.78951
1.8267
1.253
1.0128
0.844385
0.683731
0.523287
0.362628
0.202083
0.0445981
1.77659
1.81713
1.26018
1.01429
0.844385
0.683656
0.523256
0.362607
0.201921
0.0423664
1.77667
1.8107
1.26404
1.01491
0.844269
0.683575
0.523227
0.36259
0.201784
0.0396225
1.78319
1.80908
1.26481
1.01461
0.844014
0.683481
0.523199
0.362578
0.201709
0.0359538
0
0
0.88838
1.02078
0.849096
0.685544
0.523898
0.362793
0.20177
0.0359655
0
0
0.884207
1.01542
0.848387
0.685408
0.523868
0.36279
0.201841
0.0396334
0
0
0.847194
1.01316
0.847716
0.685272
0.523835
0.36279
0.201974
0.0423763
0
0
0.861252
1.00761
0.846971
0.685128
0.5238
0.362792
0.20213
0.044607
1.84595
2.16846
0.727828
0.996778
0.846175
0.68498
0.523762
0.362795
0.202292
0.0464059
1.83829
2.19513
0.72224
0.986131
0.845383
0.684831
0.523722
0.362797
0.202444
0.0478283
1.83411
2.14274
0.808218
0.981348
0.844672
0.684685
0.523681
0.362797
0.202576
0.0489175
1.84006
2.08044
0.902161
0.981619
0.84412
0.684545
0.523638
0.362794
0.202681
0.0497067
1.85535
2.02678
0.982016
0.98391
0.843747
0.684414
0.523596
0.362788
0.202752
0.0502197
1.87462
1.98094
1.04788
0.987104
0.843536
0.684293
0.523553
0.362778
0.202786
0.0504721
1.89047
1.94131
1.10142
0.990929
0.843472
0.684185
0.523511
0.362764
0.202782
0.0504713
1.89606
1.90793
1.14457
0.995149
0.843535
0.684091
0.52347
0.362747
0.202739
0.0502175
1.89
1.88252
1.17896
0.999499
0.843694
0.684008
0.52343
0.362726
0.20266
0.049703
1.87231
1.86447
1.20591
1.00368
0.843905
0.683935
0.523392
0.362702
0.202548
0.0489124
1.8446
1.85041
1.22659
1.0074
0.844117
0.683867
0.523355
0.362677
0.202409
0.0478218
1.81424
1.83803
1.24202
1.01048
0.844288
0.6838
0.52332
0.362652
0.20225
0.0463982
1.78951
1.8267
1.253
1.0128
0.844385
0.683731
0.523287
0.362628
0.202083
0.0445981
1.77659
1.81713
1.26018
1.01429
0.844385
0.683656
0.523256
0.362607
0.201921
0.0423664
1.77667
1.8107
1.26404
1.01491
0.844269
0.683575
0.523227
0.36259
0.201784
0.0396225
1.78319
1.80908
1.26481
1.01461
0.844014
0.683481
0.523199
0.362578
0.201709
0.0359538
0
0
0.890202
1.021
0.849144
0.685563
0.523903
0.362779
0.201619
0.034934
0
0
0.88682
1.01555
0.848428
0.685427
0.523871
0.362776
0.20169
0.0385964
0
0
0.85163
1.01313
0.847741
0.685288
0.523839
0.362776
0.201821
0.0413313
0
0
0.868052
1.00737
0.846974
0.685142
0.523803
0.362778
0.201977
0.0435536
1.8486
2.15248
0.736337
0.996366
0.846154
0.684991
0.523764
0.36278
0.202137
0.0453449
1.84085
2.17808
0.732388
0.985668
0.845338
0.684838
0.523724
0.362781
0.202288
0.0467609
1.83467
2.12556
0.822383
0.980905
0.844606
0.684688
0.523682
0.362781
0.202419
0.0478452
1.83582
2.06443
0.916933
0.981306
0.844049
0.684545
0.523638
0.362778
0.202523
0.0486308
1.84401
2.0132
0.993627
0.983987
0.843712
0.684413
0.523595
0.362772
0.202593
0.0491416
1.85423
1.97063
1.05515
0.98767
0.843563
0.684294
0.523552
0.362762
0.202627
0.0493928
1.86054
1.93456
1.10515
0.991834
0.843554
0.684189
0.523509
0.362748
0.202623
0.049392
1.86036
1.90452
1.14599
0.996149
0.843645
0.684095
0.523467
0.36273
0.202581
0.0491393
1.85443
1.88063
1.17921
1.00036
0.843795
0.68401
0.523427
0.362709
0.202502
0.0486271
1.84277
1.8622
1.20574
1.00427
0.843974
0.683933
0.523388
0.362685
0.202391
0.04784
1.82489
1.8475
1.22628
1.00777
0.844152
0.683861
0.52335
0.36266
0.202252
0.0467544
1.80389
1.83474
1.24163
1.01069
0.844298
0.68379
0.523315
0.362635
0.202095
0.0453371
1.78649
1.82354
1.25259
1.0129
0.844376
0.683718
0.523281
0.362611
0.201928
0.0435446
1.77844
1.81447
1.25979
1.01432
0.844363
0.683642
0.52325
0.36259
0.201768
0.0413212
1.78043
1.80861
1.26369
1.0149
0.844239
0.683559
0.52322
0.362573
0.201631
0.0385853
1.78689
1.8073
1.26451
1.01458
0.843981
0.683464
0.523193
0.362561
0.201557
0.0349221
0
0
0.890161
1.02175
0.849269
0.685604
0.523911
0.362756
0.201349
0.0327707
0
0
0.887614
1.01599
0.848537
0.685466
0.52388
0.362753
0.201418
0.0364119
0
0
0.853974
1.01305
0.847817
0.685325
0.523847
0.362752
0.201547
0.0391221
0
0
0.877076
1.00661
0.847004
0.685174
0.52381
0.362753
0.201699
0.0413221
1.85644
2.12395
0.749385
0.995263
0.846133
0.685016
0.52377
0.362755
0.201856
0.0430951
1.84883
2.14364
0.764419
0.984982
0.845284
0.684856
0.523728
0.362756
0.202005
0.044497
1.84036
2.08962
0.859658
0.981438
0.844576
0.684701
0.523685
0.362755
0.202134
0.0455709
1.83488
2.03405
0.943454
0.982707
0.844081
0.684555
0.52364
0.362752
0.202237
0.0463493
1.83065
1.98875
1.01096
0.985604
0.84379
0.684421
0.523595
0.362745
0.202306
0.0468555
1.8255
1.95161
1.06643
0.989236
0.843662
0.684299
0.52355
0.362734
0.20234
0.0471045
1.81886
1.92106
1.11221
0.993246
0.843658
0.68419
0.523506
0.362719
0.202335
0.0471037
1.81173
1.89565
1.14993
0.997357
0.843742
0.684093
0.523463
0.362701
0.202293
0.0468532
1.80595
1.87429
1.18083
1.00134
0.84388
0.684004
0.523421
0.36268
0.202216
0.0463454
1.80165
1.85629
1.20582
1.00503
0.844036
0.683922
0.52338
0.362656
0.202105
0.0455656
1.79728
1.84121
1.22565
1.00826
0.844179
0.683844
0.523341
0.362631
0.201969
0.0444902
1.79229
1.82871
1.24084
1.01093
0.844285
0.683767
0.523304
0.362606
0.201813
0.043087
1.78775
1.81838
1.25182
1.01297
0.844331
0.68369
0.52327
0.362582
0.20165
0.0413127
1.78642
1.81042
1.25909
1.01428
0.844297
0.68361
0.523237
0.362561
0.201492
0.0391117
1.79051
1.80565
1.26309
1.0148
0.844161
0.683525
0.523208
0.362544
0.201359
0.0364005
1.79653
1.80493
1.26398
1.01447
0.843898
0.68343
0.52318
0.362533
0.201286
0.0327585
0
0
0.884337
1.02425
0.84952
0.68567
0.523926
0.362733
0.201033
0.0292969
0
0
0.883841
1.01742
0.848776
0.685533
0.523895
0.362729
0.201096
0.0328385
0
0
0.842193
1.01334
0.848007
0.685388
0.523861
0.362728
0.201218
0.0354816
0
0
0.86439
1.00512
0.847124
0.68523
0.523823
0.362729
0.201364
0.0376341
1.87271
2.1059
0.782407
0.994039
0.846217
0.685064
0.523781
0.36273
0.201517
0.0393746
1.86609
2.08711
0.836324
0.986695
0.845387
0.684897
0.523737
0.36273
0.201662
0.0407541
1.85569
2.03825
0.908948
0.985159
0.844723
0.684734
0.523691
0.362728
0.201788
0.0418129
1.84259
1.99611
0.974413
0.985984
0.84424
0.68458
0.523644
0.362724
0.201888
0.0425815
1.82756
1.96025
1.03107
0.9881
0.843929
0.684436
0.523597
0.362716
0.201957
0.0430817
1.81219
1.92978
1.07931
0.991079
0.843766
0.684305
0.523549
0.362704
0.20199
0.0433279
1.79923
1.90372
1.12016
0.994564
0.843724
0.684187
0.523502
0.362689
0.201985
0.0433271
1.78976
1.88145
1.15449
0.998258
0.843769
0.684079
0.523456
0.36267
0.201944
0.0430792
1.78417
1.86245
1.18306
1.00192
0.843869
0.683982
0.523411
0.362649
0.201867
0.0425774
1.78266
1.84635
1.20649
1.00534
0.84399
0.683891
0.523368
0.362625
0.201758
0.0418073
1.78519
1.83287
1.22531
1.00838
0.844103
0.683805
0.523327
0.362599
0.201624
0.040747
1.79104
1.82178
1.23996
1.01089
0.844181
0.683722
0.523289
0.362574
0.201472
0.039366
1.79779
1.81313
1.25083
1.01279
0.844201
0.683639
0.523253
0.36255
0.201313
0.0376244
1.80423
1.8071
1.25822
1.01401
0.844147
0.683555
0.52322
0.362529
0.201161
0.0354707
1.81001
1.80385
1.26238
1.01449
0.844003
0.68347
0.52319
0.362513
0.201034
0.0328267
1.81449
1.80386
1.2634
1.01416
0.843742
0.683375
0.523163
0.362502
0.200968
0.0292842
0
0
0.87976
1.02866
0.849911
0.685756
0.523944
0.362722
0.200807
0.0244315
0
0
0.880351
1.02058
0.849276
0.685637
0.523917
0.362718
0.200857
0.0273097
0
0
0.841206
1.01604
0.84846
0.685491
0.523883
0.362716
0.200964
0.0298413
0
0
0.835873
1.00546
0.84755
0.685326
0.523843
0.362716
0.201101
0.0319397
1.88981
2.0516
0.852937
0.996603
0.846605
0.68515
0.5238
0.362716
0.201248
0.0336471
1.8841
2.03061
0.896759
0.991015
0.845734
0.68497
0.523753
0.362715
0.201389
0.0350061
1.87342
2.00251
0.947737
0.988444
0.845002
0.684792
0.523703
0.362712
0.201513
0.036052
1.85878
1.97274
0.998892
0.988116
0.84444
0.684621
0.523652
0.362707
0.201612
0.0368126
1.84324
1.94403
1.04617
0.989409
0.84405
0.684461
0.523601
0.362698
0.20168
0.0373082
1.82902
1.91769
1.08847
0.991802
0.843814
0.684314
0.523549
0.362685
0.201712
0.0375522
1.81708
1.89425
1.12551
0.994869
0.843706
0.684179
0.523498
0.362669
0.201707
0.0375513
1.80808
1.87381
1.15738
0.998263
0.843695
0.684057
0.523448
0.36265
0.201666
0.0373055
1.80264
1.85628
1.18435
1.00171
0.843745
0.683945
0.5234
0.362627
0.201589
0.0368082
1.80095
1.84153
1.20676
1.00498
0.843826
0.683842
0.523354
0.362602
0.201482
0.0360459
1.80273
1.82942
1.22497
1.0079
0.843904
0.683745
0.52331
0.362577
0.20135
0.0349984
1.80766
1.81987
1.23931
1.01034
0.843955
0.683653
0.523269
0.362551
0.201201
0.033638
1.81516
1.81282
1.25007
1.01219
0.843954
0.683563
0.523231
0.362528
0.201047
0.0319293
1.82332
1.80819
1.25751
1.01338
0.843884
0.683474
0.523197
0.362507
0.200905
0.0298297
1.82943
1.80599
1.26184
1.01387
0.843736
0.683387
0.523167
0.362491
0.200794
0.0272971
1.83275
1.8059
1.26307
1.01365
0.843518
0.683306
0.523143
0.362481
0.20074
0.0244182

VECTORS velocity float
0 0 0
0 0 0
0.841785 -0.0338685 0.000566468
0.708741 -0.00387766 0.00039171
0.753543 -0.000824354 5.20668e-05
0.763265 -0.0001792 1.05023e-05
0.765401 -4.073e-05 2.19677e-06
0.765905 -1.01894e-05 -1.15944e-06
0.766261 -1.34359e-05 -2.2657e-05
0.775103 -0.000605644 -0.000507688
0 0 0
0 0 0
-0.175795 -0.101032 0.000652978
0.715618 -0.0135132 0.000309738
0.780419 -0.00255427 5.70326e-05
0.791054 -0.000550731 1.17093e-05
0.793344 -0.000125138 2.45674e-06
0.793883 -3.12627e-05 -1.14996e-06
0.794255 -4.06543e-05 -2.39595e-05
0.796662 -0.00114401 -0.000564506
0 0 0
0 0 0
0.857358 -0.170419 0.00180661
0.739124 -0.0229117 0.000257475
0.782294 -0.00429037 5.07827e-05
0.792117 -0.000925855 1.11643e-05
0.794295 -0.000210548 2.3782e-06
0.794809 -5.24027e-05 -1.2002e-06
0.795128 -6.30812e-05 -2.4825e-05
0.797308 -0.000985591 -0.000576264
0 0 0
0 0 0
-0.160662 -0.24139 0.0008905
0.73246 -0.0309658 0.000118514
0.78338 -0.00588123 4.52193e-05
0.792378 -0.00127591 1.02224e-05
0.794373 -0.000290709 2.19405e-06
0.794846 -7.19202e-05 -1.27308e-06
0.795114 -7.59902e-05 -2.53988e-05
0.797373 -0.000812151 -0.000582469
0.460331 -0.0196658 -0.0423862
0.939334 0.00280019 -0.0197494
0.869641 -0.267179 0.00984558
0.75421 -0.03812 0.00054076
0.785087 -0.00728188 4.59995e-05
0.792684 -0.00159012 9.0613e-06
0.79444 -0.00036325 1.9367e-06
0.794858 -8.92047e-05 -1.35798e-06
0.795082 -8.10713e-05 -2.57548e-05
0.797414 -0.000656333 -0.00058604
0.523115 -0.0528256 -0.0485781
1.00158 0.00351086 -0.0159473
0.929386 -0.24546 0.00930739
0.769345 -0.0424764 0.000675055
0.786992 -0.00843031 4.3198e-05
0.793047 -0.00185992 7.62704e-06
0.794519 -0.000426287 1.61722e-06
0.794873 -0.000103823 -1.4529e-06
0.795058 -7.99917e-05 -2.59938e-05
0.797448 -0.000516614 -0.000588192
0.567022 -0.0728262 -0.0553036
0.99671 -0.00104337 -0.0126919
0.93046 -0.220045 0.00529923
0.780809 -0.0447984 0.000471159
0.789022 -0.00930589 3.36262e-05
0.793457 -0.00207861 5.9509e-06
0.79461 -0.000478231 1.25111e-06
0.794892 -0.000115447 -1.55432e-06
0.79504 -7.40877e-05 -2.61582e-05
0.797474 -0.000389943 -0.000589507
0.604396 -0.0795549 -0.0619873
0.990735 -0.00545621 -0.0109397
0.928589 -0.195134 0.00301598
0.790623 -0.0454912 0.000301234
0.791118 -0.00989869 2.35224e-05
0.793901 -0.00224122 4.1734e-06
0.794709 -0.000517814 8.53113e-07
0.794913 -0.000123851 -1.65946e-06
0.79503 -6.44646e-05 -2.62724e-05
0.797494 -0.000273233 -0.000590306
0.634842 -0.0747027 -0.0679828
0.985786 -0.00854701 -0.0100697
0.92677 -0.171755 0.00164925
0.799197 -0.0448897 0.000180041
0.793213 -0.0102106 1.37369e-05
0.794365 -0.00234462 2.36423e-06
0.794815 -0.000544116 4.36462e-07
0.794936 -0.000128905 -1.76567e-06
0.795025 -5.20658e-05 -2.63505e-05
0.797508 -0.000163487 -0.000590764
0.658029 -0.0604282 -0.0728552
0.981479 -0.00997324 -0.00966748
0.925107 -0.150137 0.00078256
0.806644 -0.0432565 9.33632e-05
0.795252 -0.0102523 4.87405e-06
0.794837 -0.00238747 5.83969e-07
0.794924 -0.000556576 1.33412e-08
0.79496 -0.000130573 -1.87037e-06
0.795026 -3.77314e-05 -2.63998e-05
0.797516 -5.78119e-05 -0.000590976