# vtk DataFile Version 2.0
TestTestTest
ASCII

DATASET STRUCTURED_GRID
DIMENSIONS 11 21 11
POINTS 2541 float
0 0 0
0.5 0 0
1 0 0
1.5 0 0
2 0 0
2.5 0 0
3 0 0
3.5 0 0
4 0 0
4.5 0 0
5 0 0
0 0.05 0
0.5 0.05 0
1 0.05 0
1.5 0.05 0
2 0.05 0
2.5 0.05 0
3 0.05 0
3.5 0.05 0
4 0.05 0
4.5 0.05 0
5 0.05 0
0 0.1 0
0.5 0.1 0
1 0.1 0
1.5 0.1 0
2 0.1 0
2.5 0.1 0
3 0.1 0
3.5 0.1 0
4 0.1 0
4.5 0.1 0
5 0.1 0
0 0.15 0
0.5 0.15 0
1 0.15 0
1.5 0.15 0
2 0.15 0
2.5 0.15 0
3 0.15 0
3.5 0.15 0
4 0.15 0
4.5 0.15 0
5 0.15 0
0 0.2 0
0.5 0.2 0
1 0.2 0
1.5 0.2 0
2 0.2 0
2.5 0.2 0
3 0.2 0
3.5 0.2 0
4 0.2 0
4.5 0.2 0
5 0.2 0
0 0.25 0
0.5 0.25 0
1 0.25 0
1.5 0.25 0
2 0.25 0
2.5 0.25 0
3 0.25 0
3.5 0.25 0
4 0.25 0
4.5 0.25 0
5 0.25 0
0 0.3 0
0.5 0.3 0
1 0.3 0
1.5 0.3 0
2 0.3 0
2.5 0.3 0
3 0.3 0
3.5 0.3 0
4 0.3 0
4.5 0.3 0
5 0.3 0
0 0.35 0
0.5 0.35 0
1 0.35 0
1.5 0.35 0
2 0.35 0
2.5 0.35 0
3 0.35 0
3.5 0.35 0
4 0.35 0
4.5 0.35 0
5 0.35 0
0 0.4 0
0.5 0.4 0
1 0.4 0
1.5 0.4 0
2 0.4 0
2.5 0.4 0
3 0.4 0
3.5 0.4 0
4 0.4 0
4.5 0.4 0
5 0.4 0
0 0.45 0
0.5 0.45 0
1 0.45 0
1.5 0.45 0
2 0.45 0
2.5 0.45 0
3 0.45 0
3.5 0.45 0
4 0.45 0
4.5 0.45 0
5 0.45 0
0 0.5 0
0.5 0.5 0
1 0.5 0
1.5 0.5 0
2 0.5 0
2.5 0.5 0
3 0.5 0
3.5 0.5 0
4 0.5 0
4.5 0.5 0
5 0.5 0
0 0.55 0
0.5 0.55 0
1 0.55 0
1.5 0.55 0
2 0.55 0
2.5 0.55 0
3 0.55 0
3.5 0.55 0
4 0.55 0
4.5 0.55 0
5 0.55 0
0 0.6 0
0.5 0.6 0
1 0.6 0
1.5 0.6 0
2 0.6 0
2.5 0.6 0
3 0.6 0
3.5 0.6 0
4 0.6 0
4.5 0.6 0
5 0.6 0
0 0.65 0
0.5 0.65 0
1 0.65 0
1.5 0.65 0
2 0.65 0
2.5 0.65 0
3 0.65 0
3.5 0.65 0
4 0.65 0
4.5 0.65 0
5 0.65 0
0 0.7 0
0.5 0.7 0
1 0.7 0
1.5 0.7 0
2 0.7 0
2.5 0.7 0
3 0.7 0
3.5 0.7 0
4 0.7 0
4.5 0.7 0
5 0.7 0
0 0.75 0
0.5 0.75 0
1 0.75 0
1.5 0.75 0
2 0.75 0
2.5 0.75 0
3 0.75 0
3.5 0.75 0
4 0.75 0
4.5 0.75 0
5 0.75 0
0 0.8 0
0.5 0.8 0
1 0.8 0
1.5 0.8 0
2 0.8 0
2.5 0.8 0
3 0.8 0
3.5 0.8 0
4 0.8 0
4.5 0.8 0
5 0.8 0
0 0.85 0
0.5 0.85 0
1 0.85 0
1.5 0.85 0
2 0.85 0
2.5 0.85 0
3 0.85 0
3.5 0.85 0
4 0.85 0
4.5 0.85 0
5 0.85 0
0 0.9 0
0.5 0.9 0
1 0.9 0
1.5 0.9 0
2 0.9 0
2.5 0.9 0
3 0.9 0
3.5 0.9 0
4 0.9 0
4.5 0.9 0
5 0.9 0
0 0.95 0
0.5 0.95 0
1 0.95 0
1.5 0.95 0
2 0.95 0
2.5 0.95 0
3 0.95 0
3.5 0.95 0
4 0.95 0
4.5 0.95 0
5 0.95 0
0 1 0
0.5 1 0
1 1 0
1.5 1 0
2 1 0
2.5 1 0
3 1 0
3.5 1 0
4 1 0
4.5 1 0
5 1 0
0 0 0.1
0.5 0 0.1
1 0 0.1
1.5 0 0.1
2 0 0.1
2.5 0 0.1
3 0 0.1
3.5 0 0.1
4 0 0.1
4.5 0 0.1
5 0 0.1
0 0.05 0.1
0.5 0.05 0.1
1 0.05 0.1
1.5 0.05 0.1
2 0.05 0.1
2.5 0.05 0.1
3 0.05 0.1
3.5 0.05 0.1
4 0.05 0.1
4.5 0.05 0.1
5 0.05 0.1
0 0.1 0.1
0.5 0.1 0.1
1 0.1 0.1
1.5 0.1 0.1
2 0.1 0.1
2.5 0.1 0.1
3 0.1 0.1
3.5 0.1 0.1
4 0.1 0.1
4.5 0.1 0.1
5 0.1 0.1
0 0.15 0.1
0.5 0.15 0.1
1 0.15 0.1
1.5 0.15 0.1
2 0.15 0.1
2.5 0.15 0.1
3 0.15 0.1
3.5 0.15 0.1
4 0.15 0.1
4.5 0.15 0.1
5 0.15 0.1
0 0.2 0.1
0.5 0.2 0.1
1 0.2 0.1
1.5 0.2 0.1
2 0.2 0.1
2.5 0.2 0.1
3 0.2 0.1
3.5 0.2 0.1
4 0.2 0.1
4.5 0.2 0.1
5 0.2 0.1
0 0.25 0.1
0.5 0.25 0.1
1 0.25 0.1
1.5 0.25 0.1
2 0.25 0.1
2.5 0.25 0.1
3 0.25 0.1
3.5 0.25 0.1
4 0.25 0.1
4.5 0.25 0.1
5 0.25 0.1
0 0.3 0.1
0.5 0.3 0.1
1 0.3 0.1
1.5 0.3 0.1
2 0.3 0.1
2.5 0.3 0.1
3 0.3 0.1
3.5 0.3 0.1
4 0.3 0.1
4.5 0.3 0.1
5 0.3 0.1
0 0.35 0.1
0.5 0.35 0.1
1 0.35 0.1
1.5 0.35 0.1
2 0.35 0.1
2.5 0.35 0.1
3 0.35 0.1
3.5 0.35 0.1
4 0.35 0.1
4.5 0.35 0.1
5 0.35 0.1
0 0.4 0.1
0.5 0.4 0.1
1 0.4 0.1
1.5 0.4 0.1
2 0.4 0.1
2.5 0.4 0.1
3 0.4 0.1
3.5 0.4 0.1
4 0.4 0.1
4.5 0.4 0.1
5 0.4 0.1
0 0.45 0.1
0.5 0.45 0.1
1 0.45 0.1
1.5 0.45 0.1
2 0.45 0.1
2.5 0.45 0.1
3 0.45 0.1
3.5 0.45 0.1
4 0.45 0.1
4.5 0.45 0.1
5 0.45 0.1
0 0.5 0.1
0.5 0.5 0.1
1 0.5 0.1
1.5 0.5 0.1
2 0.5 0.1
2.5 0.5 0.1
3 0.5 0.1
3.5 0.5 0.1
4 0.5 0.1
4.5 0.5 0.1
5 0.5 0.1
0 0.55 0.1
0.5 0.55 0.1
1 0.55 0.1
1.5 0.55 0.1
2 0.55 0.1
2.5 0.55 0.1
3 0.55 0.1
3.5 0.55 0.1
4 0.55 0.1
4.5 0.55 0.1
5 0.55 0.1
0 0.6 0.1
0.5 0.6 0.1
1 0.6 0.1
1.5 0.6 0.1
2 0.6 0.1
2.5 0.6 0.1
3 0.6 0.1
3.5 0.6 0.1
4 0.6 0.1
4.5 0.6 0.1
5 0.6 0.1
0 0.65 0.1
0.5 0.65 0.1
1 0.65 0.1
1.5 0.65 0.1
2 0.65 0.1
2.5 0.65 0.1
3 0.65 0.1
3.5 0.65 0.1
4 0.65 0.1
4.5 0.65 0.1
5 0.65 0.1
0 0.7 0.1
0.5 0.7 0.1
1 0.7 0.1
1.5 0.7 0.1
2 0.7 0.1
2.5 0.7 0.1
3 0.7 0.1
3.5 0.7 0.1
4 0.7 0.1
4.5 0.7 0.1
5 0.7 0.1
0 0.75 0.1
0.5 0.75 0.1
1 0.75 0.1
1.5 0.75 0.1
2 0.75 0.1
2.5 0.75 0.1
3 0.75 0.1
3.5 0.75 0.1
4 0.75 0.1
4.5 0.75 0.1
5 0.75 0.1
0 0.8 0.1
0.5 0.8 0.1
1 0.8 0.1
1.5 0.8 0.1
2 0.8 0.1
2.5 0.8 0.1
3 0.8 0.1
3.5 0.8 0.1
4 0.8 0.1
4.5 0.8 0.1
5 0.8 0.1
0 0.85 0.1
0.5 0.85 0.1
1 0.85 0.1
1.5 0.85 0.1
2 0.85 0.1
2.5 0.85 0.1
3 0.85 0.1
3.5 0.85 0.1
4 0.85 0.1
4.5 0.85 0.1
5 0.85 0.1
0 0.9 0.1
0.5 0.9 0.1
1 0.9 0.1
1.5 0.9 0.1
2 0.9 0.1
2.5 0.9 0.1
3 0.9 0.1
3.5 0.9 0.1
4 0.9 0.1
4.5 0.9 0.1
5 0.9 0.1
0 0.95 0.1
0.5 0.95 0.1
1 0.95 0.1
1.5 0.95 0.1
2 0.95 0.1
2.5 0.95 0.1
3 0.95 0.1
3.5 0.95 0.1
4 0.95 0.1
4.5 0.95 0.1
5 0.95 0.1
0 1 0.1
0.5 1 0.1
1 1 0.1
1.5 1 0.1
2 1 0.1
2.5 1 0.1
3 1 0.1
3.5 1 0.1
4 1 0.1
4.5 1 0.1
5 1 0.1
0 0 0.2
0.5 0 0.2
1 0 0.2
1.5 0 0.2
2 0 0.2
2.5 0 0.2
3 0 0.2
3.5 0 0.2
4 0 0.2
4.5 0 0.2
5 0 0.2
0 0.05 0.2
0.5 0.05 0.2
1 0.05 0.2
1.5 0.05 0.2
2 0.05 0.2
2.5 0.05 0.2
3 0.05 0.2
3.5 0.05 0.2
4 0.05 0.2
4.5 0.05 0.2
5 0.05 0.2
0 0.1 0.2
0.5 0.1 0.2
1 0.1 0.2
1.5 0.1 0.2
2 0.1 0.2
2.5 0.1 0.2
3 0.1 0.2
3.5 0.1 0.2
4 0.1 0.2
4.5 0.1 0.2
5 0.1 0.2
0 0.15 0.2
0.5 0.15 0.2
1 0.15 0.2
1.5 0.15 0.2
2 0.15 0.2
2.5 0.15 0.2
3 0.15 0.2
3.5 0.15 0.2
4 0.15 0.2
4.5 0.15 0.2
5 0.15 0.2
0 0.2 0.2
0.5 0.2 0.2
1 0.2 0.2
1.5 0.2 0.2
2 0.2 0.2
2.5 0.2 0.2
3 0.2 0.2
3.5 0.2 0.2
4 0.2 0.2
4.5 0.2 0.2
5 0.2 0.2
0 0.25 0.2
0.5 0.25 0.2
1 0.25 0.2
1.5 0.25 0.2
2 0.25 0.2
2.5 0.25 0.2
3 0.25 0.2
3.5 0.25 0.2
4 0.25 0.2
4.5 0.25 0.2
5 0.25 0.2
0 0.3 0.2
0.5 0.3 0.2
1 0.3 0.2
1.5 0.3 0.2
2 0.3 0.2
2.5 0.3 0.2
3 0.3 0.2
3.5 0.3 0.2
4 0.3 0.2
4.5 0.3 0.2
5 0.3 0.2
0 0.35 0.2
0.5 0.35 0.2
1 0.35 0.2
1.5 0.35 0.2
2 0.35 0.2
2.5 0.35 0.2
3 0.35 0.2
3.5 0.35 0.2
4 0.35 0.2
4.5 0.35 0.2
5 0.35 0.2
0 0.4 0.2
0.5 0.4 0.2
1 0.4 0.2
1.5 0.4 0.2
2 0.4 0.2
2.5 0.4 0.2
3 0.4 0.2
3.5 0.4 0.2
4 0.4 0.2
4.5 0.4 0.2
5 0.4 0.2
0 0.45 0.2
0.5 0.45 0.2
1 0.45 0.2
1.5 0.45 0.2
2 0.45 0.2
2.5 0.45 0.2
3 0.45 0.2
3.5 0.45 0.2
4 0.45 0.2
4.5 0.45 0.2
5 0.45 0.2
0 0.5 0.2
0.5 0.5 0.2
1 0.5 0.2
1.5 0.5 0.2
2 0.5 0.2
2.5 0.5 0.2
3 0.5 0.2
3.5 0.5 0.2
4 0.5 0.2
4.5 0.5 0.2
5 0.5 0.2
0 0.55 0.2
0.5 0.55 0.2
1 0.55 0.2
1.5 0.55 0.2
2 0.55 0.2
2.5 0.55 0.2
3 0.55 0.2
3.5 0.55 0.2
4 0.55 0.2
4.5 0.55 0.2
5 0.55 0.2
0 0.6 0.2
0.5 0.6 0.2
1 0.6 0.2
1.5 0.6 0.2
2 0.6 0.2
2.5 0.6 0.2
3 0.6 0.2
3.5 0.6 0.2
4 0.6 0.2
4.5 0.6 0.2
5 0.6 0.2
0 0.65 0.2
0.5 0.65 0.2
1 0.65 0.2
1.5 0.65 0.2
2 0.65 0.2
2.5 0.65 0.2
3 0.65 0.2
3.5 0.65 0.2
4 0.65 0.2
4.5 0.65 0.2
5 0.65 0.2
0 0.7 0.2
0.5 0.7 0.2
1 0.7 0.2
1.5 0.7 0.2
2 0.7 0.2
2.5 0.7 0.2
3 0.7 0.2
3.5 0.7 0.2
4 0.7 0.2
4.5 0.7 0.2
5 0.7 0.2
0 0.75 0.2
0.5 0.75 0.2
1 0.75 0.2
1.5 0.75 0.2
2 0.75 0.2
2.5 0.75 0.2
3 0.75 0.2
3.5 0.75 0.2
4 0.75 0.2
4.5 0.75 0.2
5 0.75 0.2
0 0.8 0.2
0.5 0.8 0.2
1 0.8 0.2
1.5 0.8 0.2
2 0.8 0.2
2.5 0.8 0.2
3 0.8 0.2
3.5 0.8 0.2
4 0.8 0.2
4.5 0.8 0.2
5 0.8 0.2
0 0.85 0.2
0.5 0.85 0.2
1 0.85 0.2
1.5 0.85 0.2
2 0.85 0.2
2.5 0.85 0.2
3 0.85 0.2
3.5 0.85 0.2
4 0.85 0.2
4.5 0.85 0.2
5 0.85 0.2
0 0.9 0.2
0.5 0.9 0.2
1 0.9 0.2
1.5 0.9 0.2
2 0.9 0.2
2.5 0.9 0.2
3 0.9 0.2
3.5 0.9 0.2
4 0.9 0.2
4.5 0.9 0.2
5 0.9 0.2
0 0.95 0.2
0.5 0.95 0.2
1 0.95 0.2
1.5 0.95 0.2
2 0.95 0.2
2.5 0.95 0.2
3 0.95 0.2
3.5 0.95 0.2
4 0.95 0.2
4.5 0.95 0.2
5 0.95 0.2
0 1 0.2
0.5 1 0.2
1 1 0.2
1.5 1 0.2
2 1 0.2
2.5 1 0.2
3 1 0.2
3.5 1 0.2
4 1 0.2
4.5 1 0.2
5 1 0.2
0 0 0.3
0.5 0 0.3
1 0 0.3
1.5 0 0.3
2 0 0.3
2.5 0 0.3
3 0 0.3
3.5 0 0.3
4 0 0.3
4.5 0 0.3
5 0 0.3
0 0.05 0.3
0.5 0.05 0.3
1 0.05 0.3
1.5 0.05 0.3
2 0.05 0.3
2.5 0.05 0.3
3 0.05 0.3
3.5 0.05 0.3
4 0.05 0.3
4.5 0.05 0.3
5 0.05 0.3
0 0.1 0.3
0.5 0.1 0.3
1 0.1 0.3
1.5 0.1 0.3
2 0.1 0.3
2.5 0.1 0.3
3 0.1 0.3
3.5 0.1 0.3
4 0.1 0.3
4.5 0.1 0.3
5 0.1 0.3
0 0.15 0.3
0.5 0.15 0.3
1 0.15 0.3
1.5 0.15 0.3
2 0.15 0.3
2.5 0.15 0.3
3 0.15 0.3
3.5 0.15 0.3
4 0.15 0.3
4.5 0.15 0.3
5 0.15 0.3
0 0.2 0.3
0.5 0.2 0.3
1 0.2 0.3
1.5 0.2 0.3
2 0.2 0.3
2.5 0.2 0.3
3 0.2 0.3
3.5 0.2 0.3
4 0.2 0.3
4.5 0.2 0.3
5 0.2 0.3
0 0.25 0.3
0.5 0.25 0.3
1 0.25 0.3
1.5 0.25 0.3
2 0.25 0.3
2.5 0.25 0.3
3 0.25 0.3
3.5 0.25 0.3
4 0.25 0.3
4.5 0.25 0.3
5 0.25 0.3
0 0.3 0.3
0.5 0.3 0.3
1 0.3 0.3
1.5 0.3 0.3
2 0.3 0.3
2.5 0.3 0.3
3 0.3 0.3
3.5 0.3 0.3
4 0.3 0.3
4.5 0.3 0.3
5 0.3 0.3
0 0.35 0.3
0.5 0.35 0.3
1 0.35 0.3
1.5 0.35 0.3
2 0.35 0.3
2.5 0.35 0.3
3 0.35 0.3
3.5 0.35 0.3
4 0.35 0.3
4.5 0.35 0.3
5 0.35 0.3
0 0.4 0.3
0.5 0.4 0.3
1 0.4 0.3
1.5 0.4 0.3
2 0.4 0.3
2.5 0.4 0.3
3 0.4 0.3
3.5 0.4 0.3
4 0.4 0.3
4.5 0.4 0.3
5 0.4 0.3
0 0.45 0.3
0.5 0.45 0.3
1 0.45 0.3
1.5 0.45 0.3
2 0.45 0.3
2.5 0.45 0.3
3 0.45 0.3
3.5 0.45 0.3
4 0.45 0.3
4.5 0.45 0.3
5 0.45 0.3
0 0.5 0.3
0.5 0.5 0.3
1 0.5 0.3
1.5 0.5 0.3
2 0.5 0.3
2.5 0.5 0.3
3 0.5 0.3
3.5 0.5 0.3
4 0.5 0.3
4.5 0.5 0.3
5 0.5 0.3
0 0.55 0.3
0.5 0.55 0.3
1 0.55 0.3
1.5 0.55 0.3
2 0.55 0.3
2.5 0.55 0.3
3 0.55 0.3
3.5 0.55 0.3
4 0.55 0.3
4.5 0.55 0.3
5 0.55 0.3
0 0.6 0.3
0.5 0.6 0.3
1 0.6 0.3
1.5 0.6 0.3
2 0.6 0.3
2.5 0.6 0.3
3 0.6 0.3
3.5 0.6 0.3
4 0.6 0.3
4.5 0.6 0.3
5 0.6 0.3
0 0.65 0.3
0.5 0.65 0.3
1 0.65 0.3
1.5 0.65 0.3
2 0.65 0.3
2.5 0.65 0.3
3 0.65 0.3
3.5 0.65 0.3
4 0.65 0.3
4.5 0.65 0.3
5 0.65 0.3
0 0.7 0.3
0.5 0.7 0.3
1 0.7 0.3
1.5 0.7 0.3
2 0.7 0.3
2.5 0.7 0.3
3 0.7 0.3
3.5 0.7 0.3
4 0.7 0.3
4.5 0.7 0.3
5 0.7 0.3
0 0.75 0.3
0.5 0.75 0.3
1 0.75 0.3
1.5 0.75 0.3
2 0.75 0.3
2.5 0.75 0.3
3 0.75 0.3
3.5 0.75 0.3
4 0.75 0.3
4.5 0.75 0.3
5 0.75 0.3
0 0.8 0.3
0.5 0.8 0.3
1 0.8 0.3
1.5 0.8 0.3
2 0.8 0.3
2.5 0.8 0.3
3 0.8 0.3
3.5 0.8 0.3
4 0.8 0.3
4.5 0.8 0.3
5 0.8 0.3
0 0.85 0.3
0.5 0.85 0.3
1 0.85 0.3
1.5 0.85 0.3
2 0.85 0.3
2.5 0.85 0.3
3 0.85 0.3
3.5 0.85 0.3
4 0.85 0.3
4.5 0.85 0.3
5 0.85 0.3
0 0.9 0.3
0.5 0.9 0.3
1 0.9 0.3
1.5 0.9 0.3
2 0.9 0.3
2.5 0.9 0.3
3 0.9 0.3
3.5 0.9 0.3
4 0.9 0.3
4.5 0.9 0.3
5 0.9 0.3
0 0.95 0.3
0.5 0.95 0.3
1 0.95 0.3
1.5 0.95 0.3
2 0.95 0.3
2.5 0.95 0.3
3 0.95 0.3
3.5 0.95 0.3
4 0.95 0.3
4.5 0.95 0.3
5 0.95 0.3
0 1 0.3
0.5 1 0.3
1 1 0.3
1.5 1 0.3
2 1 0.3
2.5 1 0.3
3 1 0.3
3.5 1 0.3
4 1 0.3
4.5 1 0.3
5 1 0.3
0 0 0.4
[...]
CELL_DATA 2000
SCALARS pressure float 1
LOOKUP_TABLE default
0
0
0.885155
0.960454
0.785884
0.631167
0.481704
0.33362
0.185171
0.0238654
0
0
0.882377
0.953296
0.785256
0.631036
0.481673
0.333614
0.185174
0.0260372
0
0
0.8486
0.94908
0.784304
0.630836
0.481626
0.333608
0.185243
0.0281863
0
0
0.835123
0.939592
0.783117
0.630581
0.481565
0.3336
0.18535
0.0300091
1.37652
1.50882
0.839309
0.930589
0.781718
0.630282
0.481492
0.333591
0.185469
0.0314872
1.37398
1.50637
0.85929
0.922761
0.780222
0.62995
0.48141
0.33358
0.185586
0.03266
1.36759
1.50099
0.884346
0.916752
0.778724
0.629595
0.48132
0.333566
0.18569
0.0335604
1.35806
1.49312
0.91423
0.912548
0.777297
0.629229
0.481224
0.333549
0.185772
0.0342139
1.348
1.48386
0.943477
0.909885
0.775989
0.628859
0.481124
0.333528
0.185827
0.0346391
1.33918
1.47437
0.970167
0.908364
0.774814
0.628494
0.481023
0.333504
0.185852
0.034848
1.33226
1.46533
0.993872
0.907665
0.773772
0.62814
0.480921
0.333476
0.185844
0.0348467
1.32759
1.45713
1.01448
0.907526
0.772854
0.627801
0.480821
0.333446
0.185805
0.0346352
1.3256
1.44996
1.03203
0.907727
0.772045
0.627482
0.480725
0.333413
0.185737
0.0342075
1.32633
1.44392
1.04665
0.90809
0.771332
0.627185
0.480634
0.33338
0.185642
0.0335516
1.32966
1.43901
1.0585
0.908472
0.770699
0.626913
0.48055
0.333347
0.185526
0.032649
1.33542
1.4352
1.06775
0.908758
0.770133
0.626668
0.480473
0.333316
0.185398
0.0314742
1.34313
1.43243
1.07458
0.90886
0.769623
0.626452
0.480406
0.333289
0.185269
0.0299942
1.35108
1.43056
1.07917
0.908725
0.769161
0.626266
0.48035
0.333265
0.185154
0.0281699
1.35662
1.4297
1.08171
0.908363
0.768761
0.626118
0.480307
0.333249
0.18508
0.0260198
1.35885
1.4297
1.08214
0.907826
0.768455
0.626018
0.480279
0.333239
0.185074
0.0238472
0
0
0.89462
0.958057
0.785863
0.631132
0.481694
0.333631
0.185348
0.0279406
0
0
0.889948
0.95156
0.78495
0.630962
0.481657
0.333622
0.185321
0.0312663
0
0
0.85756
0.947453
0.783978
0.630753
0.481607
0.333615
0.185434
0.0336405
0
0
0.863394
0.940576
0.782742
0.630498
0.481547
0.333609
0.185565
0.0354896
1.3622
1.50802
0.814255
0.930685
0.781347
0.630206
0.481476
0.333601
0.185699
0.0369878
1.35909
1.52434
0.825863
0.920596
0.779864
0.629885
0.481396
0.333591
0.185824
0.0381756
1.35357
1.51732
0.861326
0.914116
0.778414
0.629544
0.481309
0.333579
0.185932
0.0390869
1.34631
1.50396
0.897406
0.910538
0.777066
0.629192
0.481217
0.333563
0.186017
0.0397478
1.33816
1.49058
0.931567
0.908481
0.775839
0.628837
0.48112
0.333543
0.186074
0.0401775
1.33024
1.47793
0.962244
0.907433
0.774737
0.628486
0.481022
0.33352
0.186099
0.0403886
1.32405
1.46644
0.988741
0.907106
0.773757
0.628146
0.480924
0.333493
0.186092
0.0403874
1.31983
1.45649
1.01128
0.907249
0.772891
0.62782
0.480828
0.333463
0.186053
0.0401738
1.31767
1.44828
1.0302
0.907664
0.772127
0.627513
0.480735
0.333431
0.185983
0.0397416
1.31761
1.44181
1.04578
0.908188
0.771452
0.627228
0.480647
0.333398
0.185885
0.0390784
1.31994
1.43689
1.05827
0.90869
0.770851
0.626966
0.480565
0.333365
0.185765
0.038165
1.32463
1.43315
1.0679
0.909067
0.770312
0.626729
0.48049
0.333334
0.185629
0.0369753
1.33038
1.43021
1.0749
0.909241
0.769822
0.626518
0.480425
0.333305
0.185487
0.0354753
1.3362
1.42799
1.07947
0.909156
0.769377
0.626337
0.48037
0.333282
0.185348
0.0336248
1.34118
1.42698
1.08187
0.908757
0.768961
0.626183
0.480324
0.333265
0.185229
0.0312493
1.34479
1.4282
1.08211
0.908019
0.768573
0.626058
0.480291
0.333256
0.185251
0.0279227
0
0
0.905519
0.958664
0.78598
0.631105
0.481685
0.333652
0.185638
0.0311158
0
0
0.900185
0.952994
0.785033
0.630926
0.481645
0.333644
0.185623
0.0346537
0
0
0.872928
0.94988
0.784081
0.630712
0.481595
0.333638
0.185755
0.0371512
0
0
0.880633
0.944489
0.782908
0.630461
0.481535
0.333633
0.185902
0.0390721
1.34732
1.50018
0.807461
0.934946
0.781558
0.630175
0.481466
0.333627
0.186048
0.0406149
1.34398
1.53545
0.791822
0.92302
0.780054
0.629857
0.481388
0.333619
0.186182
0.0418321
1.34124
1.54155
0.823777
0.913623
0.778502
0.629521
0.481303
0.333607
0.186296
0.0427626
1.34176
1.52749
0.871832
0.908343
0.777044
0.629174
0.481213
0.333593
0.186385
0.0434359
1.34414
1.50613
0.914527
0.906182
0.775762
0.628825
0.481119
0.333574
0.186444
0.0438731
1.34651
1.48534
0.950453
0.905576
0.774657
0.628482
0.481024
0.333551
0.186471
0.0440878
1.34768
1.46772
0.98093
0.905721
0.773699
0.62815
0.480928
0.333525
0.186464
0.0440866
1.34694
1.45389
1.0065
0.906274
0.772865
0.627834
0.480834
0.333496
0.186424
0.0438695
1.34462
1.4437
1.02766
0.907023
0.772134
0.627535
0.480744
0.333464
0.186352
0.04343
1.34071
1.43684
1.04489
0.907817
0.771492
0.627258
0.480658
0.333431
0.18625
0.0427545
1.33522
1.4328
1.05856
0.908536
0.770921
0.627004
0.480578
0.333398
0.186124
0.0418218
1.32922
1.4307
1.06884
0.909088
0.770409
0.626773
0.480506
0.333366
0.18598
0.0406027
1.32438
1.42922
1.07593
0.909397
0.769946
0.626569
0.480441
0.333337
0.185825
0.0390583
1.32291
1.42768
1.08028
0.909387
0.769517
0.62639
0.480387
0.333312
0.18567
0.0371359
1.32568
1.42686
1.08248
0.908996
0.769099
0.626234
0.48034
0.333293
0.185533
0.0346372
1.32985
1.42841
1.08266
0.908223
0.768691
0.626102
0.480305
0.333283
0.185543
0.0310984
0
0
0.911204
0.960117
0.786148
0.631095
0.481679
0.333674
0.185893
0.0331244
0
0
0.906157
0.954739
0.785207
0.630914
0.48164
0.333667
0.185883
0.0367069
0
0
0.8791
0.952213
0.784284
0.630701
0.481589
0.333662
0.186022
0.0392477
0
0
0.883424
0.947504
0.783164
0.630455
0.48153
0.333658
0.186177
0.0412034
1.33972
1.50676
0.806211
0.938254
0.781867
0.630174
0.481462
0.333653
0.186329
0.0427727
1.33724
1.54632
0.778186
0.925929
0.780388
0.629862
0.481385
0.333645
0.186468
0.0440095
1.3379
1.55827
0.79461
0.914975
0.778787
0.629528
0.481302
0.333635
0.186587
0.0449542
1.34631
1.54628
0.840753
0.907807
0.777209
0.62918
0.481213
0.333621
0.186679
0.0456373
1.36139
1.5204
0.8933
0.904612
0.775799
0.628829
0.48112
0.333603
0.18674
0.0460805
1.37807
1.49184
0.937672
0.903812
0.774608
0.628485
0.481026
0.333581
0.186768
0.046298
1.39062
1.4661
0.973106
0.904099
0.773608
0.628153
0.480932
0.333556
0.186761
0.0462968
1.39582
1.44599
1.00207
0.904891
0.772759
0.627838
0.48084
0.333527
0.18672
0.046077
1.39345
1.43298
1.02589
0.90591
0.772032
0.627542
0.480751
0.333495
0.186646
0.0456315
1.38335
1.4267
1.04492
0.906999
0.771408
0.627268
0.480666
0.333462
0.186542
0.0449462
1.366
1.42519
1.05935
0.908021
0.770874
0.627019
0.480587
0.333428
0.186412
0.0439995
1.34523
1.42591
1.06973
0.908835
0.770406
0.626795
0.480516
0.333396
0.186262
0.0427608
1.32769
1.42699
1.07673
0.909322
0.769978
0.626595
0.480452
0.333366
0.186101
0.0411898
1.31866
1.42735
1.08098
0.909409
0.769569
0.626419
0.480398
0.33334
0.185938
0.0392327
1.31839
1.42734
1.08307
0.909062
0.769159
0.626263
0.480352
0.33332
0.185793
0.0366907
1.32189
1.42923
1.08325
0.908302
0.768753
0.626131
0.480316
0.333309
0.185799
0.0331072
0
0
0.912792
0.961037
0.786262
0.631093
0.481677
0.333688
0.186037
0.0340876
0
0
0.907493
0.955766
0.785327
0.630913
0.481638
0.333681
0.186028
0.0376811
0
0
0.879593
0.953476
0.784421
0.630701
0.481587
0.333676
0.186169
0.0402364
0
0
0.882557
0.949037
0.783326
0.630456
0.481529
0.333673
0.186327
0.0422057
1.33707
1.51289
0.804
0.939927
0.782054
0.630178
0.481461
0.333668
0.186482
0.0437865
1.33527
1.55369
0.773785
0.927521
0.780595
0.629869
0.481385
0.333661
0.186624
0.0450325
1.33864
1.56679
0.785496
0.916272
0.778997
0.629539
0.481302
0.333651
0.186745
0.0459841
1.35266
1.55508
0.825163
0.908449
0.777388
0.629193
0.481214
0.333638
0.186838
0.046672
1.37547
1.52754
0.876267
0.904292
0.775901
0.62884
0.481122
0.33362
0.186901
0.0471184
1.40079
1.4951
0.925836
0.902796
0.77461
0.62849
0.481028
0.333599
0.186929
0.0473376
1.42128
1.46478
0.967671
0.902864
0.77353
0.628152
0.480934
0.333573
0.186922
0.0473364
1.43079
1.4406
1.0007
0.903748
0.772638
0.627833
0.480842
0.333544
0.186881
0.0471149
1.42826
1.42555
1.0261
0.905019
0.771912
0.627538
0.480754
0.333513
0.186806
0.0466663
1.41355
1.4196
1.04539
0.906392
0.771321
0.627269
0.48067
0.33348
0.1867
0.0459762
1.38805
1.41967
1.05977
0.907651
0.770824
0.627024
0.480592
0.333446
0.186568
0.0450225
1.35857
1.42251
1.07015
0.908631
0.770385
0.626803
0.480521
0.333413
0.186416
0.0437747
1.33336
1.42547
1.07715
0.909226
0.769977
0.626606
0.480458
0.333383
0.186251
0.0421923
1.31887
1.42711
1.08136
0.909376
0.769582
0.626432
0.480404
0.333356
0.186086
0.0402215
1.31608
1.42773
1.08342
0.909061
0.769179
0.626276
0.480357
0.333336
0.185939
0.037665
1.31899
1.42986
1.0836
0.908315
0.768775
0.626145
0.480321
0.333325
0.185943
0.0340706
0
0
0.912792
0.961037
0.786262
0.631093
0.481677
0.333688
0.186037
0.0340876
0
0
0.907493
0.955766
0.785327
0.630913
0.481638
0.333681
0.186028
0.0376811
0
0
0.879593
0.953476
0.784421
0.630701
0.481587
0.333676
0.186169
0.0402364
0
0
0.882557
0.949037
0.783326
0.630456
0.481529
0.333673
0.186327
0.0422057
1.33707
1.51289
0.804
0.939927
0.782054
0.630178
0.481461
0.333668
0.186482
0.0437865
1.33527
1.55369
0.773785
0.927521
0.780595
0.629869
0.481385
0.333661
0.186624
0.0450325
1.33864
1.56679
0.785496
0.916272
0.778997
0.629539
0.481302
0.333651
0.186745
0.0459841
1.35266
1.55508
0.825163
0.908449
0.777388
0.629193
0.481214
0.333638
0.186838
0.046672
1.37547
1.52754
0.876267
0.904292
0.775901
0.62884
0.481122
0.33362
0.186901
0.0471184
1.40079
1.4951
0.925836
0.902796
0.77461
0.62849
0.481028
0.333599
0.186929
0.0473376
1.42128
1.46478
0.967671
0.902864
0.77353
0.628152
0.480934
0.333573
0.186922
0.0473364
1.43079
1.4406
1.0007
0.903748
0.772638
0.627833
0.480842
0.333544
0.186881
0.0471149
1.42826
1.42555
1.0261
0.905019
0.771912
0.627538
0.480754
0.333513
0.186806
0.0466663
1.41355
1.4196
1.04539
0.906392
0.771321
0.627269
0.48067
0.33348
0.1867
0.0459762
1.38805
1.41967
1.05977
0.907651
0.770824
0.627024
0.480592
0.333446
0.186568
0.0450225
1.35857
1.42251
1.07015
0.908631
0.770385
0.626803
0.480521
0.333413
0.186416
0.0437747
1.33336
1.42547
1.07715
0.909226
0.769977
0.626606
0.480458
0.333383
0.186251
0.0421923
1.31887
1.42711
1.08136
0.909376
0.769582
0.626432
0.480404
0.333356
0.186086
0.0402215
1.31608
1.42773
1.08342
0.909061
0.769179
0.626276
0.480357
0.333336
0.185939
0.037665
1.31899
1.42986
1.0836
0.908315
0.768775
0.626145
0.480321
0.333325
0.185943
0.0340706
0
0
0.911204
0.960117
0.786148
0.631095
0.481679
0.333674
0.185893
0.0331244
0
0
0.906157
0.954739
0.785207
0.630914
0.48164
0.333667
0.185883
0.0367069
0
0
0.8791
0.952213
0.784284
0.630701
0.481589
0.333662
0.186022
0.0392477
0
0
0.883424
0.947504
0.783164
0.630455
0.48153
0.333658
0.186177
0.0412034
1.33972
1.50676
0.806211
0.938254
0.781867
0.630174
0.481462
0.333653
0.186329
0.0427727
1.33724
1.54632
0.778186
0.925929
0.780388
0.629862
0.481385
0.333645
0.186468
0.0440095
1.3379
1.55827
0.79461
0.914975
0.778787
0.629528
0.481302
0.333635
0.186587
0.0449542
1.34631
1.54628
0.840753
0.907807
0.777209
0.62918
0.481213
0.333621
0.186679
0.0456373
1.36139
1.5204
0.8933
0.904612
0.775799
0.628829
0.48112
0.333603
0.18674
0.0460805
1.37807
1.49184
0.937672
0.903812
0.774608
0.628485
0.481026
0.333581
0.186768
0.046298
1.39062
1.4661
0.973106
0.904099
0.773608
0.628153
0.480932
0.333556
0.186761
0.0462968
1.39582
1.44599
1.00207
0.904891
0.772759
0.627838
0.48084
0.333527
0.18672
0.046077
1.39345
1.43298
1.02589
0.90591
0.772032
0.627542
0.480751
0.333495
0.186646
0.0456315
1.38335
1.4267
1.04492
0.906999
0.771408
0.627268
0.480666
0.333462
0.186542
0.0449462
1.366
1.42519
1.05935
0.908021
0.770874
0.627019
0.480587
0.333428
0.186412
0.0439995
1.34523
1.42591
1.06973
0.908835
0.770406
0.626795
0.480516
0.333396
0.186262
0.0427608
1.32769
1.42699
1.07673
0.909322
0.769978
0.626595
0.480452
0.333366
0.186101
0.0411898
1.31866
1.42735
1.08098
0.909409
0.769569
0.626419
0.480398
0.33334
0.185938
0.0392327
1.31839
1.42734
1.08307
0.909062
0.769159
0.626263
0.480352
0.33332
0.185793
0.0366907
1.32189
1.42923
1.08325
0.908302
0.768753
0.626131
0.480316
0.333309
0.185799
0.0331072
0
0
0.905519
0.958664
0.78598
0.631105
0.481685
0.333652
0.185638
0.0311158
0
0
0.900185
0.952994
0.785033
0.630926
0.481645
0.333644
0.185623
0.0346537
0
0
0.872928
0.94988
0.784081
0.630712
0.481595
0.333638
0.185755
0.0371512
0
0
0.880633
0.944489
0.782908
0.630461
0.481535
0.333633
0.185902
0.0390721
1.34732
1.50018
0.807461
0.934946
0.781558
0.630175
0.481466
0.333627
0.186048
0.0406149
1.34398
1.53545
0.791822
0.92302
0.780054
0.629857
0.481388
0.333619
0.186182
0.0418321
1.34124
1.54155
0.823777
0.913623
0.778502
0.629521
0.481303
0.333607
0.186296
0.0427626
1.34176
1.52749
0.871832
0.908343
0.777044
0.629174
0.481213
0.333593
0.186385
0.0434359
1.34414
1.50613
0.914527
0.906182
0.775762
0.628825
0.481119
0.333574
0.186444
0.0438731
1.34651
1.48534
0.950453
0.905576
0.774657
0.628482
0.481024
0.333551
0.186471
0.0440878
1.34768
1.46772
0.98093
0.905721
0.773699
0.62815
0.480928
0.333525
0.186464
0.0440866
1.34694
1.45389
1.0065
0.906274
0.772865
0.627834
0.480834
0.333496
0.186424
0.0438695
1.34462
1.4437
1.02766
0.907023
0.772134
0.627535
0.480744
0.333464
0.186352
0.04343
1.34071
1.43684
1.04489
0.907817
0.771492
0.627258
0.480658
0.333431
0.18625
0.0427545
1.33522
1.4328
1.05856
0.908536
0.770921
0.627004
0.480578
0.333398
0.186124
0.0418218
1.32922
1.4307
1.06884
0.909088
0.770409
0.626773
0.480506
0.333366
0.18598
0.0406027
1.32438
1.42922
1.07593
0.909397
0.769946
0.626569
0.480441
0.333337
0.185825
0.0390583
1.32291
1.42768
1.08028
0.909387
0.769517
0.62639
0.480387
0.333312
0.18567
0.0371359
1.32568
1.42686
1.08248
0.908996
0.769099
0.626234
0.48034
0.333293
0.185533
0.0346372
1.32985
1.42841
1.08266
0.908223
0.768691
0.626102
0.480305
0.333283
0.185543
0.0310984
0
0
0.89462
0.958057
0.785863
0.631132
0.481694
0.333631
0.185348
0.0279406
0
0
0.889948
0.95156
0.78495
0.630962
0.481657
0.333622
0.185321
0.0312663
0
0
0.85756
0.947453
0.783978
0.630753
0.481607
0.333615
0.185434
0.0336405
0
0
0.863394
0.940576
0.782742
0.630498
0.481547
0.333609
0.185565
0.0354896
1.3622
1.50802
0.814255
0.930685
0.781347
0.630206
0.481476
0.333601
0.185699
0.0369878
1.35909
1.52434
0.825863
0.920596
0.779864
0.629885
0.481396
0.333591
0.185824
0.0381756
1.35357
1.51732
0.861326
0.914116
0.778414
0.629544
0.481309
0.333579
0.185932
0.0390869
1.34631
1.50396
0.897406
0.910538
0.777066
0.629192
0.481217
0.333563
0.186017
0.0397478
1.33816
1.49058
0.931567
0.908481
0.775839
0.628837
0.48112
0.333543
0.186074
0.0401775
1.33024
1.47793
0.962244
0.907433
0.774737
0.628486
0.481022
0.33352
0.186099
0.0403886
1.32405
1.46644
0.988741
0.907106
0.773757
0.628146
0.480924
0.333493
0.186092
0.0403874
1.31983
1.45649
1.01128
0.907249
0.772891
0.62782
0.480828
0.333463
0.186053
0.0401738
1.31767
1.44828
1.0302
0.907664
0.772127
0.627513
0.480735
0.333431
0.185983
0.0397416
1.31761
1.44181
1.04578
0.908188
0.771452
0.627228
0.480647
0.333398
0.185885
0.0390784
1.31994
1.43689
1.05827
0.90869
0.770851
0.626966
0.480565
0.333365
0.185765
0.038165
1.32463
1.43315
1.0679
0.909067
0.770312
0.626729
0.48049
0.333334
0.185629
0.0369753
1.33038
1.43021
1.0749
0.909241
0.769822
0.626518
0.480425
0.333305
0.185487
0.0354753
1.3362
1.42799
1.07947
0.909156
0.769377
0.626337
0.48037
0.333282
0.185348
0.0336248
1.34118
1.42698
1.08187
0.908757
0.768961
0.626183
0.480324
0.333265
0.185229
0.0312493
1.34479
1.4282
1.08211
0.908019
0.768573
0.626058
0.480291
0.333256
0.185251
0.0279227
0
0
0.885155
0.960454
0.785884
0.631167
0.481704
0.33362
0.185171
0.0238654
0
0
0.882377
0.953296
0.785256
0.631036
0.481673
0.333614
0.185174
0.0260372
0
0
0.8486
0.94908
0.784304
0.630836
0.481626
0.333608
0.185243
0.0281863
0
0
0.835123
0.939592
0.783117
0.630581
0.481565
0.3336
0.18535
0.0300091
1.37652
1.50882
0.839309
0.930589
0.781718
0.630282
0.481492
0.333591
0.185469
0.0314872
1.37398
1.50637
0.85929
0.922761
0.780222
0.62995
0.48141
0.33358
0.185586
0.03266
1.36759
1.50099
0.884346
0.916752
0.778724
0.629595
0.48132
0.333566
0.18569
0.0335604
1.35806
1.49312
0.91423
0.912548
0.777297
0.629229
0.481224
0.333549
0.185772
0.0342139
1.348
1.48386
0.943477
0.909885
0.775989
0.628859
0.481124
0.333528
0.185827
0.0346391
1.33918
1.47437
0.970167
0.908364
0.774814
0.628494
0.481023
0.333504
0.185852
0.034848
1.33226
1.46533
0.993872
0.907665
0.773772
0.62814
0.480921
0.333476
0.185844
0.0348467
1.32759
1.45713
1.01448
0.907526
0.772854
0.627801
0.480821
0.333446
0.185805
0.0346352
1.3256
1.44996
1.03203
0.907727
0.772045
0.627482
0.480725
0.333413
0.185737
0.0342075
1.32633
1.44392
1.04665
0.90809
0.771332
0.627185
0.480634
0.33338
0.185642
0.0335516
1.32966
1.43901
1.0585
0.908472
0.770699
0.626913
0.48055
0.333347
0.185526
0.032649
1.33542
1.4352
1.06775
0.908758
0.770133
0.626668
0.480473
0.333316
0.185398
0.0314742
1.34313
1.43243
1.07458
0.90886
0.769623
0.626452
0.480406
0.333289
0.185269
0.0299942
1.35108
1.43056
1.07917
0.908725
0.769161
0.626266
0.48035
0.333265
0.185154
0.0281699
1.35662
1.4297
1.08171
0.908363
0.768761
0.626118
0.480307
0.333249
0.18508
0.0260198
1.35885
1.4297
1.08214
0.907826
0.768455
0.626018
0.480279
0.333239
0.185074
0.0238472

VECTORS velocity float
0 0 0
0 0 0
0.725637 -0.0304873 -0.00262535
0.654329 -0.00234245 0.00104138
0.678318 -0.000641494 0.000128632
0.685411 -0.000145987 2.77512e-05
0.687027 -3.25792e-05 6.19765e-06
0.687426 -8.97704e-06 -2.85e-06
0.687841 -6.58958e-06 -4.91755e-05
0.711739 -0.00163063 -0.00145594
0 0 0
0 0 0
-0.103532 -0.0902991 -0.00212224
0.672965 -0.0116149 0.000832137
0.74721 -0.00228491 0.00018261
0.758093 -0.000489635 3.99637e-05
0.760259 -0.000108417 8.74524e-06
0.760777 -2.96186e-05 -2.39538e-06
0.761565 -5.35277e-05 -5.12282e-05
0.771293 -0.00325782 -0.00182058
0 0 0
0 0 0
0.749218 -0.153431 -0.000755388
0.715848 -0.0220947 0.000694533
0.755964 -0.00417567 0.000159416
0.765815 -0.000882909 3.91661e-05
0.767966 -0.000195148 8.83706e-06
0.768484 -5.26724e-05 -2.58353e-06
0.769189 -0.000122812 -5.79262e-05
0.776658 -0.00300351 -0.00187976
0 0 0
0 0 0
-0.0893947 -0.219015 1.13307e-05
0.691951 -0.0313118 5.43135e-05
0.75674 -0.00596837 0.000130163
0.766789 -0.00126276 3.63005e-05
0.768815 -0.000279284 8.2897e-06
0.769297 -7.42151e-05 -2.93262e-06
0.769868 -0.000165605 -6.32231e-05
0.77729 -0.00249894 -0.00190092
0.392192 -0.0163967 -0.0352971
0.773341 0.00824045 -0.0246813
0.751246 -0.25025 0.0114797
0.720246 -0.0407356 0.00114917
0.758875 -0.00763327 0.000160278
0.767146 -0.00161012 3.3725e-05
0.768935 -0.000356274 7.41383e-06
0.769363 -9.28706e-05 -3.33623e-06
0.769819 -0.000181922 -6.59254e-05
0.777448 -0.00201717 -0.00191108
0.474205 -0.0439394 -0.0434925
0.927871 0.0168472 -0.0256813
0.892286 -0.241703 0.0160557
0.743976 -0.0466669 0.00194589
0.761138 -0.00899639 0.00017544
0.767508 -0.00191062 2.95859e-05
0.769012 -0.000423548 6.25364e-06
0.769375 -0.000107987 -3.78385e-06
0.769737 -0.000178231 -6.75775e-05
0.777551 -0.00158403 -0.00191764
0.521272 -0.0599406 -0.0494562
0.946008 0.0153526 -0.0220585
0.915027 -0.223409 0.0113994
0.757343 -0.0498603 0.0015972
0.763242 -0.0100394 0.000141679
0.767908 -0.00215617 2.31435e-05
0.769097 -0.00047923 4.86023e-06
0.769388 -0.000119211 -4.24587e-06
0.769673 -0.000159531 -6.8616e-05
0.77763 -0.00119194 -0.00192193
0.560006 -0.0644044 -0.0543367
0.943431 0.0114607 -0.0190692
0.91534 -0.201975 0.006459
0.767349 -0.0509741 0.00103987
0.765383 -0.0107577 9.88898e-05
0.768347 -0.00234069 1.61367e-05
0.769192 -0.000521845 3.33583e-06
0.769403 -0.000126396 -4.70458e-06
0.769627 -0.000129845 -6.92778e-05
0.777688 -0.000831187 -0.00192466
0.591471 -0.0594173 -0.0583509
0.938848 0.00794548 -0.0173474
0.912946 -0.179805 0.00344599
0.776087 -0.0504369 0.000610181
0.76757 -0.0111498 5.74182e-05
0.768812 -0.00245996 9.0431e-06
0.769293 -0.000550307 1.74131e-06
0.769422 -0.000129566 -5.14759e-06
0.7696 -9.25168e-05 -6.96931e-05
0.777727 -0.000492351 -0.00192629
0.615671 -0.0470022 -0.0616225
0.934595 0.00579084 -0.0164607
0.910416 -0.158238 0.00155449
0.783731 -0.0486103 0.000311464
0.769722 -0.0112239 2.13529e-05