# vtk DataFile Version 2.0
TestTestTest
ASCII

DATASET STRUCTURED_GRID
DIMENSIONS 11 21 11
POINTS 2541 float
0 0 0
0.5 0 0
1 0 0
1.5 0 0
2 0 0
2.5 0 0
3 0 0
3.5 0 0
4 0 0
4.5 0 0
5 0 0
0 0.05 0
0.5 0.05 0
1 0.05 0
1.5 0.05 0
2 0.05 0
2.5 0.05 0
3 0.05 0
3.5 0.05 0
4 0.05 0
4.5 0.05 0
5 0.05 0
0 0.1 0
0.5 0.1 0
1 0.1 0
1.5 0.1 0
2 0.1 0
2.5 0.1 0
3 0.1 0
3.5 0.1 0
4 0.1 0
4.5 0.1 0
5 0.1 0
0 0.15 0
0.5 0.15 0
1 0.15 0
1.5 0.15 0
2 0.15 0
2.5 0.15 0
3 0.15 0
3.5 0.15 0
4 0.15 0
4.5 0.15 0
5 0.15 0
0 0.2 0
0.5 0.2 0
1 0.2 0
1.5 0.2 0
2 0.2 0
2.5 0.2 0
3 0.2 0
3.5 0.2 0
4 0.2 0
4.5 0.2 0
5 0.2 0
0 0.25 0
0.5 0.25 0
1 0.25 0
1.5 0.25 0
2 0.25 0
2.5 0.25 0
3 0.25 0
3.5 0.25 0
4 0.25 0
4.5 0.25 0
5 0.25 0
0 0.3 0
0.5 0.3 0
1 0.3 0
1.5 0.3 0
2 0.3 0
2.5 0.3 0
3 0.3 0
3.5 0.3 0
4 0.3 0
4.5 0.3 0
5 0.3 0
0 0.35 0
0.5 0.35 0
1 0.35 0
1.5 0.35 0
2 0.35 0
2.5 0.35 0
3 0.35 0
3.5 0.35 0
4 0.35 0
4.5 0.35 0
5 0.35 0
0 0.4 0
0.5 0.4 0
1 0.4 0
1.5 0.4 0
2 0.4 0
2.5 0.4 0
3 0.4 0
3.5 0.4 0
4 0.4 0
4.5 0.4 0
5 0.4 0
0 0.45 0
0.5 0.45 0
1 0.45 0
1.5 0.45 0
2 0.45 0
2.5 0.45 0
3 0.45 0
3.5 0.45 0
4 0.45 0
4.5 0.45 0
5 0.45 0
0 0.5 0
0.5 0.5 0
1 0.5 0
1.5 0.5 0
2 0.5 0
2.5 0.5 0
3 0.5 0
3.5 0.5 0
4 0.5 0
4.5 0.5 0
5 0.5 0
0 0.55 0
0.5 0.55 0
1 0.55 0
1.5 0.55 0
2 0.55 0
2.5 0.55 0
3 0.55 0
3.5 0.55 0
4 0.55 0
4.5 0.55 0
5 0.55 0
0 0.6 0
0.5 0.6 0
1 0.6 0
1.5 0.6 0
2 0.6 0
2.5 0.6 0
3 0.6 0
3.5 0.6 0
4 0.6 0
4.5 0.6 0
5 0.6 0
0 0.65 0
0.5 0.65 0
1 0.65 0
1.5 0.65 0
2 0.65 0
2.5 0.65 0
3 0.65 0
3.5 0.65 0
4 0.65 0
4.5 0.65 0
5 0.65 0
0 0.7 0
0.5 0.7 0
1 0.7 0
1.5 0.7 0
2 0.7 0
2.5 0.7 0
3 0.7 0
3.5 0.7 0
4 0.7 0
4.5 0.7 0
5 0.7 0
0 0.75 0
0.5 0.75 0
1 0.75 0
1.5 0.75 0
2 0.75 0
2.5 0.75 0
3 0.75 0
3.5 0.75 0
4 0.75 0
4.5 0.75 0
5 0.75 0
0 0.8 0
0.5 0.8 0
1 0.8 0
1.5 0.8 0
2 0.8 0
2.5 0.8 0
3 0.8 0
3.5 0.8 0
4 0.8 0
4.5 0.8 0
5 0.8 0
0 0.85 0
0.5 0.85 0
1 0.85 0
1.5 0.85 0
2 0.85 0
2.5 0.85 0
3 0.85 0
3.5 0.85 0
4 0.85 0
4.5 0.85 0
5 0.85 0
0 0.9 0
0.5 0.9 0
1 0.9 0
1.5 0.9 0
2 0.9 0
2.5 0.9 0
3 0.9 0
3.5 0.9 0
4 0.9 0
4.5 0.9 0
5 0.9 0
0 0.95 0
0.5 0.95 0
1 0.95 0
1.5 0.95 0
2 0.95 0
2.5 0.95 0
3 0.95 0
3.5 0.95 0
4 0.95 0
4.5 0.95 0
5 0.95 0
0 1 0
0.5 1 0
1 1 0
1.5 1 0
2 1 0
2.5 1 0
3 1 0
3.5 1 0
4 1 0
4.5 1 0
5 1 0
0 0 0.1
0.5 0 0.1
1 0 0.1
1.5 0 0.1
2 0 0.1
2.5 0 0.1
3 0 0.1
3.5 0 0.1
4 0 0.1
4.5 0 0.1
5 0 0.1
0 0.05 0.1
0.5 0.05 0.1
1 0.05 0.1
1.5 0.05 0.1
2 0.05 0.1
2.5 0.05 0.1
3 0.05 0.1
3.5 0.05 0.1
4 0.05 0.1
4.5 0.05 0.1
5 0.05 0.1
0 0.1 0.1
0.5 0.1 0.1
1 0.1 0.1
1.5 0.1 0.1
2 0.1 0.1
2.5 0.1 0.1
3 0.1 0.1
3.5 0.1 0.1
4 0.1 0.1
4.5 0.1 0.1
5 0.1 0.1
0 0.15 0.1
0.5 0.15 0.1
1 0.15 0.1
1.5 0.15 0.1
2 0.15 0.1
2.5 0.15 0.1
3 0.15 0.1
3.5 0.15 0.1
4 0.15 0.1
4.5 0.15 0.1
5 0.15 0.1
0 0.2 0.1
0.5 0.2 0.1
1 0.2 0.1
1.5 0.2 0.1
2 0.2 0.1
2.5 0.2 0.1
3 0.2 0.1
3.5 0.2 0.1
4 0.2 0.1
4.5 0.2 0.1
5 0.2 0.1
0 0.25 0.1
0.5 0.25 0.1
1 0.25 0.1
1.5 0.25 0.1
2 0.25 0.1
2.5 0.25 0.1
3 0.25 0.1
3.5 0.25 0.1
4 0.25 0.1
4.5 0.25 0.1
5 0.25 0.1
0 0.3 0.1
0.5 0.3 0.1
1 0.3 0.1
1.5 0.3 0.1
2 0.3 0.1
2.5 0.3 0.1
3 0.3 0.1
3.5 0.3 0.1
4 0.3 0.1
4.5 0.3 0.1
5 0.3 0.1
0 0.35 0.1
0.5 0.35 0.1
1 0.35 0.1
1.5 0.35 0.1
2 0.35 0.1
2.5 0.35 0.1
3 0.35 0.1
3.5 0.35 0.1
4 0.35 0.1
4.5 0.35 0.1
5 0.35 0.1
0 0.4 0.1
0.5 0.4 0.1
1 0.4 0.1
1.5 0.4 0.1
2 0.4 0.1
2.5 0.4 0.1
3 0.4 0.1
3.5 0.4 0.1
4 0.4 0.1
4.5 0.4 0.1
5 0.4 0.1
0 0.45 0.1
0.5 0.45 0.1
1 0.45 0.1
1.5 0.45 0.1
2 0.45 0.1
2.5 0.45 0.1
3 0.45 0.1
3.5 0.45 0.1
4 0.45 0.1
4.5 0.45 0.1
5 0.45 0.1
0 0.5 0.1
0.5 0.5 0.1
1 0.5 0.1
1.5 0.5 0.1
2 0.5 0.1
2.5 0.5 0.1
3 0.5 0.1
3.5 0.5 0.1
4 0.5 0.1
4.5 0.5 0.1
5 0.5 0.1
0 0.55 0.1
0.5 0.55 0.1
1 0.55 0.1
1.5 0.55 0.1
2 0.55 0.1
2.5 0.55 0.1
3 0.55 0.1
3.5 0.55 0.1
4 0.55 0.1
4.5 0.55 0.1
5 0.55 0.1
0 0.6 0.1
0.5 0.6 0.1
1 0.6 0.1
1.5 0.6 0.1
2 0.6 0.1
2.5 0.6 0.1
3 0.6 0.1
3.5 0.6 0.1
4 0.6 0.1
4.5 0.6 0.1
5 0.6 0.1
0 0.65 0.1
0.5 0.65 0.1
1 0.65 0.1
1.5 0.65 0.1
2 0.65 0.1
2.5 0.65 0.1
3 0.65 0.1
3.5 0.65 0.1
4 0.65 0.1
4.5 0.65 0.1
5 0.65 0.1
0 0.7 0.1
0.5 0.7 0.1
1 0.7 0.1
1.5 0.7 0.1
2 0.7 0.1
2.5 0.7 0.1
3 0.7 0.1
3.5 0.7 0.1
4 0.7 0.1
4.5 0.7 0.1
5 0.7 0.1
0 0.75 0.1
0.5 0.75 0.1
1 0.75 0.1
1.5 0.75 0.1
2 0.75 0.1
2.5 0.75 0.1
3 0.75 0.1
3.5 0.75 0.1
4 0.75 0.1
4.5 0.75 0.1
5 0.75 0.1
0 0.8 0.1
0.5 0.8 0.1
1 0.8 0.1
1.5 0.8 0.1
2 0.8 0.1
2.5 0.8 0.1
3 0.8 0.1
3.5 0.8 0.1
4 0.8 0.1
4.5 0.8 0.1
5 0.8 0.1
0 0.85 0.1
0.5 0.85 0.1
1 0.85 0.1
1.5 0.85 0.1
2 0.85 0.1
2.5 0.85 0.1
3 0.85 0.1
3.5 0.85 0.1
4 0.85 0.1
4.5 0.85 0.1
5 0.85 0.1
0 0.9 0.1
0.5 0.9 0.1
1 0.9 0.1
1.5 0.9 0.1
2 0.9 0.1
2.5 0.9 0.1
3 0.9 0.1
3.5 0.9 0.1
4 0.9 0.1
4.5 0.9 0.1
5 0.9 0.1
0 0.95 0.1
0.5 0.95 0.1
1 0.95 0.1
1.5 0.95 0.1
2 0.95 0.1
2.5 0.95 0.1
3 0.95 0.1
3.5 0.95 0.1
4 0.95 0.1
4.5 0.95 0.1
5 0.95 0.1
0 1 0.1
0.5 1 0.1
1 1 0.1
1.5 1 0.1
2 1 0.1
2.5 1 0.1
3 1 0.1
3.5 1 0.1
4 1 0.1
4.5 1 0.1
5 1 0.1
0 0 0.2
0.5 0 0.2
1 0 0.2
1.5 0 0.2
2 0 0.2
2.5 0 0.2
3 0 0.2
3.5 0 0.2
4 0 0.2
4.5 0 0.2
5 0 0.2
0 0.05 0.2
0.5 0.05 0.2
1 0.05 0.2
1.5 0.05 0.2
2 0.05 0.2
2.5 0.05 0.2
3 0.05 0.2
3.5 0.05 0.2
4 0.05 0.2
4.5 0.05 0.2
5 0.05 0.2
0 0.1 0.2
0.5 0.1 0.2
1 0.1 0.2
1.5 0.1 0.2
2 0.1 0.2
2.5 0.1 0.2
3 0.1 0.2
3.5 0.1 0.2
4 0.1 0.2
4.5 0.1 0.2
5 0.1 0.2
0 0.15 0.2
0.5 0.15 0.2
1 0.15 0.2
1.5 0.15 0.2
2 0.15 0.2
2.5 0.15 0.2
3 0.15 0.2
3.5 0.15 0.2
4 0.15 0.2
4.5 0.15 0.2
5 0.15 0.2
0 0.2 0.2
0.5 0.2 0.2
1 0.2 0.2
1.5 0.2 0.2
2 0.2 0.2
2.5 0.2 0.2
3 0.2 0.2
3.5 0.2 0.2
4 0.2 0.2
4.5 0.2 0.2
5 0.2 0.2
0 0.25 0.2
0.5 0.25 0.2
1 0.25 0.2
1.5 0.25 0.2
2 0.25 0.2
2.5 0.25 0.2
3 0.25 0.2
3.5 0.25 0.2
4 0.25 0.2
4.5 0.25 0.2
5 0.25 0.2
0 0.3 0.2
0.5 0.3 0.2
1 0.3 0.2
1.5 0.3 0.2
2 0.3 0.2
2.5 0.3 0.2
3 0.3 0.2
3.5 0.3 0.2
4 0.3 0.2
4.5 0.3 0.2
5 0.3 0.2
0 0.35 0.2
0.5 0.35 0.2
1 0.35 0.2
1.5 0.35 0.2
2 0.35 0.2
2.5 0.35 0.2
3 0.35 0.2
3.5 0.35 0.2
4 0.35 0.2
4.5 0.35 0.2
5 0.35 0.2
0 0.4 0.2
0.5 0.4 0.2
1 0.4 0.2
1.5 0.4 0.2
2 0.4 0.2
2.5 0.4 0.2
3 0.4 0.2
3.5 0.4 0.2
4 0.4 0.2
4.5 0.4 0.2
5 0.4 0.2
0 0.45 0.2
0.5 0.45 0.2
1 0.45 0.2
1.5 0.45 0.2
2 0.45 0.2
2.5 0.45 0.2
3 0.45 0.2
3.5 0.45 0.2
4 0.45 0.2
4.5 0.45 0.2
5 0.45 0.2
0 0.5 0.2
0.5 0.5 0.2
1 0.5 0.2
1.5 0.5 0.2
2 0.5 0.2
2.5 0.5 0.2
3 0.5 0.2
3.5 0.5 0.2
4 0.5 0.2
4.5 0.5 0.2
5 0.5 0.2
0 0.55 0.2
0.5 0.55 0.2
1 0.55 0.2
1.5 0.55 0.2
2 0.55 0.2
2.5 0.55 0.2
3 0.55 0.2
3.5 0.55 0.2
4 0.55 0.2
4.5 0.55 0.2
5 0.55 0.2
0 0.6 0.2
0.5 0.6 0.2
1 0.6 0.2
1.5 0.6 0.2
2 0.6 0.2
2.5 0.6 0.2
3 0.6 0.2
3.5 0.6 0.2
4 0.6 0.2
4.5 0.6 0.2
5 0.6 0.2
0 0.65 0.2
0.5 0.65 0.2
1 0.65 0.2
1.5 0.65 0.2
2 0.65 0.2
2.5 0.65 0.2
3 0.65 0.2
3.5 0.65 0.2
4 0.65 0.2
4.5 0.65 0.2
5 0.65 0.2
0 0.7 0.2
0.5 0.7 0.2
1 0.7 0.2
1.5 0.7 0.2
2 0.7 0.2
2.5 0.7 0.2
3 0.7 0.2
3.5 0.7 0.2
4 0.7 0.2
4.5 0.7 0.2
5 0.7 0.2
0 0.75 0.2
0.5 0.75 0.2
1 0.75 0.2
1.5 0.75 0.2
2 0.75 0.2
2.5 0.75 0.2
3 0.75 0.2
3.5 0.75 0.2
4 0.75 0.2
4.5 0.75 0.2
5 0.75 0.2
0 0.8 0.2
0.5 0.8 0.2
1 0.8 0.2
1.5 0.8 0.2
2 0.8 0.2
2.5 0.8 0.2
3 0.8 0.2
3.5 0.8 0.2
4 0.8 0.2
4.5 0.8 0.2
5 0.8 0.2
0 0.85 0.2
0.5 0.85 0.2
1 0.85 0.2
1.5 0.85 0.2
2 0.85 0.2
2.5 0.85 0.2
3 0.85 0.2
3.5 0.85 0.2
4 0.85 0.2
4.5 0.85 0.2
5 0.85 0.2
0 0.9 0.2
0.5 0.9 0.2
1 0.9 0.2
1.5 0.9 0.2
2 0.9 0.2
2.5 0.9 0.2
3 0.9 0.2
3.5 0.9 0.2
4 0.9 0.2
4.5 0.9 0.2
5 0.9 0.2
0 0.95 0.2
0.5 0.95 0.2
1 0.95 0.2
1.5 0.95 0.2
2 0.95 0.2
2.5 0.95 0.2
3 0.95 0.2
3.5 0.95 0.2
4 0.95 0.2
4.5 0.95 0.2
5 0.95 0.2
0 1 0.2
0.5 1 0.2
1 1 0.2
1.5 1 0.2
2 1 0.2
2.5 1 0.2
3 1 0.2
3.5 1 0.2
4 1 0.2
4.5 1 0.2
5 1 0.2
0 0 0.3
0.5 0 0.3
1 0 0.3
1.5 0 0.3
2 0 0.3
2.5 0 0.3
3 0 0.3
3.5 0 0.3
4 0 0.3
4.5 0 0.3
5 0 0.3
0 0.05 0.3
0.5 0.05 0.3
1 0.05 0.3
1.5 0.05 0.3
2 0.05 0.3
2.5 0.05 0.3
3 0.05 0.3
3.5 0.05 0.3
4 0.05 0.3
4.5 0.05 0.3
5 0.05 0.3
0 0.1 0.3
0.5 0.1 0.3
1 0.1 0.3
1.5 0.1 0.3
2 0.1 0.3
2.5 0.1 0.3
3 0.1 0.3
3.5 0.1 0.3
4 0.1 0.3
4.5 0.1 0.3
5 0.1 0.3
0 0.15 0.3
0.5 0.15 0.3
1 0.15 0.3
1.5 0.15 0.3
2 0.15 0.3
2.5 0.15 0.3
3 0.15 0.3
3.5 0.15 0.3
4 0.15 0.3
4.5 0.15 0.3
5 0.15 0.3
0 0.2 0.3
0.5 0.2 0.3
1 0.2 0.3
1.5 0.2 0.3
2 0.2 0.3
2.5 0.2 0.3
3 0.2 0.3
3.5 0.2 0.3
4 0.2 0.3
4.5 0.2 0.3
5 0.2 0.3
0 0.25 0.3
0.5 0.25 0.3
1 0.25 0.3
1.5 0.25 0.3
2 0.25 0.3
2.5 0.25 0.3
3 0.25 0.3
3.5 0.25 0.3
4 0.25 0.3
4.5 0.25 0.3
5 0.25 0.3
0 0.3 0.3
0.5 0.3 0.3
1 0.3 0.3
1.5 0.3 0.3
2 0.3 0.3
2.5 0.3 0.3
3 0.3 0.3
3.5 0.3 0.3
4 0.3 0.3
4.5 0.3 0.3
5 0.3 0.3
0 0.35 0.3
0.5 0.35 0.3
1 0.35 0.3
1.5 0.35 0.3
2 0.35 0.3
2.5 0.35 0.3
3 0.35 0.3
3.5 0.35 0.3
4 0.35 0.3
4.5 0.35 0.3
5 0.35 0.3
0 0.4 0.3
0.5 0.4 0.3
1 0.4 0.3
1.5 0.4 0.3
2 0.4 0.3
2.5 0.4 0.3
3 0.4 0.3
3.5 0.4 0.3
4 0.4 0.3
4.5 0.4 0.3
5 0.4 0.3
0 0.45 0.3
0.5 0.45 0.3
1 0.45 0.3
1.5 0.45 0.3
2 0.45 0.3
2.5 0.45 0.3
3 0.45 0.3
3.5 0.45 0.3
4 0.45 0.3
4.5 0.45 0.3
5 0.45 0.3
0 0.5 0.3
0.5 0.5 0.3
1 0.5 0.3
1.5 0.5 0.3
2 0.5 0.3
2.5 0.5 0.3
3 0.5 0.3
3.5 0.5 0.3
4 0.5 0.3
4.5 0.5 0.3
5 0.5 0.3
0 0.55 0.3
0.5 0.55 0.3
1 0.55 0.3
1.5 0.55 0.3
2 0.55 0.3
2.5 0.55 0.3
3 0.55 0.3
3.5 0.55 0.3
4 0.55 0.3
4.5 0.55 0.3
5 0.55 0.3
0 0.6 0.3
0.5 0.6 0.3
1 0.6 0.3
1.5 0.6 0.3
2 0.6 0.3
2.5 0.6 0.3
3 0.6 0.3
3.5 0.6 0.3
4 0.6 0.3
4.5 0.6 0.3
5 0.6 0.3
0 0.65 0.3
0.5 0.65 0.3
1 0.65 0.3
1.5 0.65 0.3
2 0.65 0.3
2.5 0.65 0.3
3 0.65 0.3
3.5 0.65 0.3
4 0.65 0.3
4.5 0.65 0.3
5 0.65 0.3
0 0.7 0.3
0.5 0.7 0.3
1 0.7 0.3
1.5 0.7 0.3
2 0.7 0.3
2.5 0.7 0.3
3 0.7 0.3
3.5 0.7 0.3
4 0.7 0.3
4.5 0.7 0.3
5 0.7 0.3
0 0.75 0.3
0.5 0.75 0.3
1 0.75 0.3
1.5 0.75 0.3
2 0.75 0.3
2.5 0.75 0.3
3 0.75 0.3
3.5 0.75 0.3
4 0.75 0.3
4.5 0.75 0.3
5 0.75 0.3
0 0.8 0.3
0.5 0.8 0.3
1 0.8 0.3
1.5 0.8 0.3
2 0.8 0.3
2.5 0.8 0.3
3 0.8 0.3
3.5 0.8 0.3
4 0.8 0.3
4.5 0.8 0.3
5 0.8 0.3
0 0.85 0.3
0.5 0.85 0.3
1 0.85 0.3
1.5 0.85 0.3
2 0.85 0.3
2.5 0.85 0.3
3 0.85 0.3
3.5 0.85 0.3
4 0.85 0.3
4.5 0.85 0.3
5 0.85 0.3
0 0.9 0.3
0.5 0.9 0.3
1 0.9 0.3
1.5 0.9 0.3
2 0.9 0.3
2.5 0.9 0.3
3 0.9 0.3
3.5 0.9 0.3
4 0.9 0.3
4.5 0.9 0.3
5 0.9 0.3
0 0.95 0.3
0.5 0.95 0.3
1 0.95 0.3
1.5 0.95 0.3
2 0.95 0.3
2.5 0.95 0.3
3 0.95 0.3
3.5 0.95 0.3
4 0.95 0.3
4.5 0.95 0.3
5 0.95 0.3
0 1 0.3
0.5 1 0.3
1 1 0.3
1.5 1 0.3
2 1 0.3
2.5 1 0.3
3 1 0.3
3.5 1 0.3
4 1 0.3
4.5 1 0.3
5 1 0.3
0 0 0.4
[...]
CELL_DATA 2000
SCALARS pressure float 1
LOOKUP_TABLE default
0
0
0.905957
1.00976
0.829116
0.667333
0.509559
0.352816
0.19554
0.0242925
0
0
0.904601
1.00196
0.82846
0.667202
0.509529
0.352811
0.195571
0.02692
0
0
0.866579
0.997376
0.827539
0.667022
0.509487
0.352806
0.195662
0.0293185
0
0
0.855905
0.987027
0.826455
0.666805
0.509434
0.352802
0.195785
0.0313154
1.63245
1.77065
0.866062
0.977763
0.825247
0.66656
0.509374
0.352797
0.19592
0.0329381
1.62823
1.75982
0.896865
0.970846
0.824027
0.666294
0.509307
0.35279
0.196051
0.0342285
1.61963
1.74372
0.933924
0.96639
0.822876
0.666018
0.509234
0.352781
0.196166
0.035221
1.60747
1.72561
0.973456
0.963955
0.821844
0.665738
0.509157
0.352769
0.196257
0.0359422
1.59463
1.70754
1.0105
0.963057
0.820953
0.665461
0.509079
0.352753
0.196319
0.0364119
1.58316
1.69063
1.04384
0.963256
0.820201
0.665193
0.508999
0.352734
0.196347
0.036643
1.57386
1.67537
1.07314
0.964192
0.819577
0.664936
0.508919
0.352711
0.196341
0.0366418
1.56722
1.66196
1.09841
0.965572
0.819061
0.664693
0.508841
0.352685
0.1963
0.0364084
1.56375
1.65041
1.1198
0.967156
0.818633
0.664465
0.508765
0.352657
0.196227
0.0359365
1.56357
1.64068
1.13757
0.968751
0.818269
0.664254
0.508694
0.352627
0.196124
0.0352131
1.56646
1.63271
1.15197
0.970205
0.817949
0.664059
0.508627
0.352597
0.195998
0.0342187
1.57218
1.62646
1.16325
0.971396
0.817654
0.663881
0.508566
0.352568
0.195858
0.0329265
1.58019
1.62191
1.17164
0.972234
0.817366
0.663721
0.508511
0.352541
0.195715
0.0313021
1.58863
1.61899
1.17735
0.972652
0.817075
0.663577
0.508464
0.352519
0.195584
0.0293038
1.59478
1.61776
1.18058
0.972628
0.81678
0.663454
0.508426
0.352502
0.195489
0.0269042
1.5978
1.61795
1.1813
0.972189
0.816501
0.663359
0.508399
0.352492
0.195454
0.024276
0
0
0.914685
1.00581
0.828865
0.667266
0.509544
0.352827
0.195744
0.0288631
0
0
0.911734
0.999102
0.82802
0.667107
0.509508
0.352821
0.195782
0.0323972
0
0
0.87481
0.99486
0.827132
0.666925
0.509465
0.352817
0.195899
0.0349273
0
0
0.887755
0.987197
0.826048
0.666713
0.509415
0.352814
0.196037
0.036969
1.61586
1.78806
0.823716
0.976553
0.824869
0.666476
0.509356
0.35281
0.19618
0.0386211
1.6109
1.79495
0.851501
0.967503
0.823681
0.666223
0.509292
0.352804
0.196316
0.0399307
1.60281
1.76813
0.904191
0.963463
0.822593
0.665961
0.509222
0.352796
0.196434
0.0409357
1.59245
1.74173
0.953499
0.961998
0.821638
0.665697
0.50915
0.352785
0.196527
0.0416649
1.5806
1.71858
0.997852
0.961837
0.820827
0.665437
0.509075
0.352771
0.19659
0.0421394
1.56879
1.69853
1.03606
0.962571
0.820149
0.665185
0.508998
0.352752
0.19662
0.0423727
1.55922
1.68114
1.06854
0.963895
0.81959
0.664943
0.508923
0.352731
0.196614
0.0423716
1.55251
1.66619
1.09591
0.965555
0.81913
0.664715
0.508848
0.352705
0.196573
0.0421361
1.54891
1.6535
1.11871
0.967341
0.81875
0.664501
0.508776
0.352678
0.196498
0.0416595
1.5485
1.64286
1.13738
0.969083
0.818427
0.664302
0.508708
0.352648
0.196394
0.0409282
1.55142
1.63408
1.15233
0.970641
0.81814
0.664119
0.508644
0.352618
0.196266
0.0399214
1.5573
1.6269
1.16389
0.971907
0.817871
0.66395
0.508585
0.352589
0.196121
0.03861
1.56419
1.62124
1.17237
0.972797
0.817605
0.663796
0.508532
0.352562
0.19597
0.0369564
1.57085
1.61728
1.17801
0.97325
0.817331
0.663657
0.508486
0.352539
0.195825
0.0349133
1.57665
1.6153
1.18105
0.97321
0.817035
0.663533
0.508448
0.352522
0.195702
0.032382
1.58101
1.61607
1.18152
0.972601
0.816691
0.663418
0.508415
0.352511
0.19566
0.0288471
0
0
0.924561
1.00467
0.828759
0.667215
0.509531
0.352849
0.19605
0.0322252
0
0
0.920468
0.998947
0.827911
0.667052
0.509495
0.352843
0.196097
0.0359003
0
0
0.890444
0.995839
0.827067
0.666872
0.509452
0.35284
0.196224
0.0385148
0
0
0.904874
0.989832
0.826054
0.666665
0.509402
0.352838
0.196371
0.0406126
1.59948
1.78816
0.809387
0.979458
0.824916
0.666436
0.509345
0.352835
0.196522
0.0423018
1.59385
1.82339
0.800188
0.96802
0.823706
0.666189
0.509283
0.352831
0.196663
0.0436364
1.5881
1.80697
0.860174
0.961087
0.822544
0.665934
0.509216
0.352824
0.196785
0.0446581
1.5854
1.7723
0.926404
0.959135
0.821541
0.665677
0.509146
0.352814
0.19688
0.0453982
1.58416
1.74065
0.98028
0.959538
0.820724
0.665425
0.509073
0.3528
0.196945
0.0458792
1.58257
1.71392
1.02474
0.96086
0.820068
0.665181
0.509
0.352783
0.196975
0.0461156
1.57982
1.69181
1.06158
0.962673
0.81954
0.664949
0.508927
0.352762
0.196969
0.0461145
1.57604
1.67368
1.09199
0.964725
0.819115
0.66473
0.508855
0.352737
0.196928
0.045876
1.57228
1.65897
1.11691
0.966823
0.818769
0.664525
0.508786
0.35271
0.196852
0.045393
1.56857
1.64721
1.13704
0.968811
0.818479
0.664334
0.50872
0.352681
0.196746
0.0446509
1.56417
1.63792
1.15296
0.970562
0.818222
0.664158
0.508658
0.352651
0.196614
0.0436274
1.55932
1.63054
1.16502
0.971982
0.817979
0.663996
0.5086
0.352621
0.196463
0.0422911
1.55529
1.62437
1.17355
0.972997
0.817739
0.663847
0.508549
0.352594
0.196305
0.0406004
1.55446
1.61936
1.17899
0.973532
0.817483
0.663712
0.508504
0.352571
0.196151
0.0385013
1.55844
1.61643
1.18182
0.973518
0.81719
0.663588
0.508465
0.352552
0.196018
0.0358856
1.56404
1.61685
1.18216
0.972891
0.816838
0.66347
0.508432
0.352541
0.195967
0.0322096
0
0
0.928463
1.00497
0.828757
0.667186
0.509524
0.352872
0.196313
0.0343319
0
0
0.924106
0.99956
0.827922
0.667023
0.509487
0.352866
0.196363
0.0380365
0
0
0.89346
0.997019
0.82711
0.666846
0.509445
0.352864
0.196494
0.0406825
0
0
0.902956
0.991746
0.826147
0.666644
0.509396
0.352862
0.196646
0.0428073
1.59131
1.80339
0.803381
0.98174
0.82506
0.66642
0.50934
0.35286
0.196801
0.0445179
1.58599
1.84434
0.779242
0.969881
0.82388
0.66618
0.509279
0.352857
0.196945
0.0458688
1.58302
1.83392
0.825036
0.961481
0.822679
0.665928
0.509214
0.35285
0.19707
0.0469023
1.58753
1.79773
0.898246
0.958105
0.821587
0.665673
0.509145
0.352841
0.197168
0.0476505
1.59883
1.76014
0.962781
0.958033
0.820695
0.665422
0.509074
0.352828
0.197234
0.0481366
1.61214
1.72699
1.01393
0.959357
0.819997
0.66518
0.509002
0.352811
0.197265
0.0483755
1.62169
1.69842
1.05502
0.961305
0.819451
0.66495
0.50893
0.35279
0.197259
0.0483745
1.62445
1.67514
1.08851
0.963546
0.819025
0.664734
0.50886
0.352766
0.197217
0.0481336
1.62062
1.65797
1.11574
0.965856
0.818687
0.664532
0.508792
0.352739
0.19714
0.0476455
1.61013
1.64644
1.13739
0.968081
0.818416
0.664346
0.508728
0.35271
0.197032
0.0468953
1.59295
1.63868
1.15395
0.970096
0.818193
0.664176
0.508667
0.35268
0.196897
0.04586
1.57258
1.63251
1.16607
0.971761
0.817992
0.664019
0.508611
0.35265
0.196744
0.0445075
1.55569
1.62689
1.17449
0.97295
0.817784
0.663876
0.50856
0.352623
0.196581
0.0427954
1.54781
1.62187
1.17981
0.973588
0.817548
0.663744
0.508516
0.352599
0.196423
0.0406693
1.54937
1.6185
1.18252
0.973624
0.817267
0.663621
0.508477
0.35258
0.196286
0.0380222
1.55498
1.61868
1.18278
0.973013
0.816917
0.663504
0.508444
0.352568
0.196232
0.0343167
0
0
0.928805
1.00531
0.828779
0.667174
0.509521
0.352886
0.196461
0.0353386
0
0
0.923865
1
0.827952
0.667012
0.509484
0.35288
0.196512
0.0390506
0
0
0.891762
0.997662
0.827156
0.666836
0.509442
0.352878
0.196644
0.0417068
0
0
0.899301
0.992642
0.826215
0.666636
0.509393
0.352877
0.196798
0.043842
1.58848
1.8138
0.798123
0.98282
0.825153
0.666415
0.509338
0.352875
0.196954
0.0455617
1.5835
1.85621
0.772175
0.97096
0.823995
0.666178
0.509278
0.352872
0.197101
0.04692
1.58284
1.84704
0.81332
0.962391
0.822809
0.665931
0.509213
0.352866
0.197227
0.0479592
1.59253
1.81058
0.882807
0.958626
0.821705
0.665678
0.509145
0.352857
0.197325
0.0487115
1.61125
1.77066
0.949644
0.957952
0.82076
0.665426
0.509075
0.352844
0.197392
0.0492003
1.63344
1.73379
1.00591
0.958746
0.819987
0.665181
0.509003
0.352828
0.197423
0.0494404
1.65171
1.70122
1.05135
0.960388
0.819378
0.664947
0.508932
0.352807
0.197418
0.0494394
1.65951
1.67438
1.08748
0.962564
0.818917
0.66473
0.508863
0.352783
0.197375
0.0491973
1.65559
1.65565
1.11589
0.965024
0.818584
0.66453
0.508795
0.352756
0.197298
0.0487066
1.63986
1.64468
1.13786
0.967503
0.818345
0.664348
0.508731
0.352727
0.197189
0.0479523
1.61369
1.63815
1.15446
0.969746
0.818156
0.664182
0.508671
0.352697
0.197053
0.0469113
1.58419
1.63321
1.1666
0.971572
0.817981
0.664029
0.508616
0.352668
0.196898
0.0455514
1.55973
1.62831
1.175
0.972868
0.817792
0.663888
0.508566
0.35264
0.196734
0.0438302
1.54672
1.62348
1.18028
0.973572
0.817569
0.663758
0.508522
0.352616
0.196573
0.0416938
1.54616
1.61997
1.18292
0.973643
0.817295
0.663637
0.508483
0.352597
0.196435
0.0390364
1.55159
1.62005
1.18315
0.973044
0.816949
0.663519
0.50845
0.352584
0.19638
0.0353235
0
0
0.928805
1.00531
0.828779
0.667174
0.509521
0.352886
0.196461
0.0353386
0
0
0.923865
1
0.827952
0.667012
0.509484
0.35288
0.196512
0.0390506
0
0
0.891762
0.997662
0.827156
0.666836
0.509442
0.352878
0.196644
0.0417068
0
0
0.899301
0.992642
0.826215
0.666636
0.509393
0.352877
0.196798
0.043842
1.58848
1.8138
0.798123
0.98282
0.825153
0.666415
0.509338
0.352875
0.196954
0.0455617
1.5835
1.85621
0.772175
0.97096
0.823995
0.666178
0.509278
0.352872
0.197101
0.04692
1.58284
1.84704
0.81332
0.962391
0.822809
0.665931
0.509213
0.352866
0.197227
0.0479592
1.59253
1.81058
0.882807
0.958626
0.821705
0.665678
0.509145
0.352857
0.197325
0.0487115
1.61125
1.77066
0.949644
0.957952
0.82076
0.665426
0.509075
0.352844
0.197392
0.0492003
1.63344
1.73379
1.00591
0.958746
0.819987
0.665181
0.509003
0.352828
0.197423
0.0494404
1.65171
1.70122
1.05135
0.960388
0.819378
0.664947
0.508932
0.352807
0.197418
0.0494394
1.65951
1.67438
1.08748
0.962564
0.818917
0.66473
0.508863
0.352783
0.197375
0.0491973
1.65559
1.65565
1.11589
0.965024
0.818584
0.66453
0.508795
0.352756
0.197298
0.0487066
1.63986
1.64468
1.13786
0.967503
0.818345
0.664348
0.508731
0.352727
0.197189
0.0479523
1.61369
1.63815
1.15446
0.969746
0.818156
0.664182
0.508671
0.352697
0.197053
0.0469113
1.58419
1.63321
1.1666
0.971572
0.817981
0.664029
0.508616
0.352668
0.196898
0.0455514
1.55973
1.62831
1.175
0.972868
0.817792
0.663888
0.508566
0.35264
0.196734
0.0438302
1.54672
1.62348
1.18028
0.973572
0.817569
0.663758
0.508522
0.352616
0.196573
0.0416938
1.54616
1.61997
1.18292
0.973643
0.817295
0.663637
0.508483
0.352597
0.196435
0.0390364
1.55159
1.62005
1.18315
0.973044
0.816949
0.663519
0.50845
0.352584
0.19638
0.0353235
0
0
0.928463
1.00497
0.828757
0.667186
0.509524
0.352872
0.196313
0.0343319
0
0
0.924106
0.99956
0.827922
0.667023
0.509487
0.352866
0.196363
0.0380365
0
0
0.89346
0.997019
0.82711
0.666846
0.509445
0.352864
0.196494
0.0406825
0
0
0.902956
0.991746
0.826147
0.666644
0.509396
0.352862
0.196646
0.0428073
1.59131
1.80339
0.803381
0.98174
0.82506
0.66642
0.50934
0.35286
0.196801
0.0445179
1.58599
1.84434
0.779242
0.969881
0.82388
0.66618
0.509279
0.352857
0.196945
0.0458688
1.58302
1.83392
0.825036
0.961481
0.822679
0.665928
0.509214
0.35285
0.19707
0.0469023
1.58753
1.79773
0.898246
0.958105
0.821587
0.665673
0.509145
0.352841
0.197168
0.0476505
1.59883
1.76014
0.962781
0.958033
0.820695
0.665422
0.509074
0.352828
0.197234
0.0481366
1.61214
1.72699
1.01393
0.959357
0.819997
0.66518
0.509002
0.352811
0.197265
0.0483755
1.62169
1.69842
1.05502
0.961305
0.819451
0.66495
0.50893
0.35279
0.197259
0.0483745
1.62445
1.67514
1.08851
0.963546
0.819025
0.664734
0.50886
0.352766
0.197217
0.0481336
1.62062
1.65797
1.11574
0.965856
0.818687
0.664532
0.508792
0.352739
0.19714
0.0476455
1.61013
1.64644
1.13739
0.968081
0.818416
0.664346
0.508728
0.35271
0.197032
0.0468953
1.59295
1.63868
1.15395
0.970096
0.818193
0.664176
0.508667
0.35268
0.196897
0.04586
1.57258
1.63251
1.16607
0.971761
0.817992
0.664019
0.508611
0.35265
0.196744
0.0445075
1.55569
1.62689
1.17449
0.97295
0.817784
0.663876
0.50856
0.352623
0.196581
0.0427954
1.54781
1.62187
1.17981
0.973588
0.817548
0.663744
0.508516
0.352599
0.196423
0.0406693
1.54937
1.6185
1.18252
0.973624
0.817267
0.663621
0.508477
0.35258
0.196286
0.0380222
1.55498
1.61868
1.18278
0.973013
0.816917
0.663504
0.508444
0.352568
0.196232
0.0343167
0
0
0.924561
1.00467
0.828759
0.667215
0.509531
0.352849
0.19605
0.0322252
0
0
0.920468
0.998947
0.827911
0.667052
0.509495
0.352843
0.196097
0.0359003
0
0
0.890444
0.995839
0.827067
0.666872
0.509452
0.35284
0.196224
0.0385148
0
0
0.904874
0.989832
0.826054
0.666665
0.509402
0.352838
0.196371
0.0406126
1.59948
1.78816
0.809387
0.979458
0.824916
0.666436
0.509345
0.352835
0.196522
0.0423018
1.59385
1.82339
0.800188
0.96802
0.823706
0.666189
0.509283
0.352831
0.196663
0.0436364
1.5881
1.80697
0.860174
0.961087
0.822544
0.665934
0.509216
0.352824
0.196785
0.0446581
1.5854
1.7723
0.926404
0.959135
0.821541
0.665677
0.509146
0.352814
0.19688
0.0453982
1.58416
1.74065
0.98028
0.959538
0.820724
0.665425
0.509073
0.3528
0.196945
0.0458792
1.58257
1.71392
1.02474
0.96086
0.820068
0.665181
0.509
0.352783
0.196975
0.0461156
1.57982
1.69181
1.06158
0.962673
0.81954
0.664949
0.508927
0.352762
0.196969
0.0461145
1.57604
1.67368
1.09199
0.964725
0.819115
0.66473
0.508855
0.352737
0.196928
0.045876
1.57228
1.65897
1.11691
0.966823
0.818769
0.664525
0.508786
0.35271
0.196852
0.045393
1.56857
1.64721
1.13704
0.968811
0.818479
0.664334
0.50872
0.352681
0.196746
0.0446509
1.56417
1.63792
1.15296
0.970562
0.818222
0.664158
0.508658
0.352651
0.196614
0.0436274
1.55932
1.63054
1.16502
0.971982
0.817979
0.663996
0.5086
0.352621
0.196463
0.0422911
1.55529
1.62437
1.17355
0.972997
0.817739
0.663847
0.508549
0.352594
0.196305
0.0406004
1.55446
1.61936
1.17899
0.973532
0.817483
0.663712
0.508504
0.352571
0.196151
0.0385013
1.55844
1.61643
1.18182
0.973518
0.81719
0.663588
0.508465
0.352552
0.196018
0.0358856
1.56404
1.61685
1.18216
0.972891
0.816838
0.66347
0.508432
0.352541
0.195967
0.0322096
0
0
0.914685
1.00581
0.828865
0.667266
0.509544
0.352827
0.195744
0.0288631
0
0
0.911734
0.999102
0.82802
0.667107
0.509508
0.352821
0.195782
0.0323972
0
0
0.87481
0.99486
0.827132
0.666925
0.509465
0.352817
0.195899
0.0349273
0
0
0.887755
0.987197
0.826048
0.666713
0.509415
0.352814
0.196037
0.036969
1.61586
1.78806
0.823716
0.976553
0.824869
0.666476
0.509356
0.35281
0.19618
0.0386211
1.6109
1.79495
0.851501
0.967503
0.823681
0.666223
0.509292
0.352804
0.196316
0.0399307
1.60281
1.76813
0.904191
0.963463
0.822593
0.665961
0.509222
0.352796
0.196434
0.0409357
1.59245
1.74173
0.953499
0.961998
0.821638
0.665697
0.50915
0.352785
0.196527
0.0416649
1.5806
1.71858
0.997852
0.961837
0.820827
0.665437
0.509075
0.352771
0.19659
0.0421394
1.56879
1.69853
1.03606
0.962571
0.820149
0.665185
0.508998
0.352752
0.19662
0.0423727
1.55922
1.68114
1.06854
0.963895
0.81959
0.664943
0.508923
0.352731
0.196614
0.0423716
1.55251
1.66619
1.09591
0.965555
0.81913
0.664715
0.508848
0.352705
0.196573
0.0421361
1.54891
1.6535
1.11871
0.967341
0.81875
0.664501
0.508776
0.352678
0.196498
0.0416595
1.5485
1.64286
1.13738
0.969083
0.818427
0.664302
0.508708
0.352648
0.196394
0.0409282
1.55142
1.63408
1.15233
0.970641
0.81814
0.664119
0.508644
0.352618
0.196266
0.0399214
1.5573
1.6269
1.16389
0.971907
0.817871
0.66395
0.508585
0.352589
0.196121
0.03861
1.56419
1.62124
1.17237
0.972797
0.817605
0.663796
0.508532
0.352562
0.19597
0.0369564
1.57085
1.61728
1.17801
0.97325
0.817331
0.663657
0.508486
0.352539
0.195825
0.0349133
1.57665
1.6153
1.18105
0.97321
0.817035
0.663533
0.508448
0.352522
0.195702
0.032382
1.58101
1.61607
1.18152
0.972601
0.816691
0.663418
0.508415
0.352511
0.19566
0.0288471
0
0
0.905957
1.00976
0.829116
0.667333
0.509559
0.352816
0.19554
0.0242925
0
0
0.904601
1.00196
0.82846
0.667202
0.509529
0.352811
0.195571
0.02692
0
0
0.866579
0.997376
0.827539
0.667022
0.509487
0.352806
0.195662
0.0293185
0
0
0.855905
0.987027
0.826455
0.666805
0.509434
0.352802
0.195785
0.0313154
1.63245
1.77065
0.866062
0.977763
0.825247
0.66656
0.509374
0.352797
0.19592
0.0329381
1.62823
1.75982
0.896865
0.970846
0.824027
0.666294
0.509307
0.35279
0.196051
0.0342285
1.61963
1.74372
0.933924
0.96639
0.822876
0.666018
0.509234
0.352781
0.196166
0.035221
1.60747
1.72561
0.973456
0.963955
0.821844
0.665738
0.509157
0.352769
0.196257
0.0359422
1.59463
1.70754
1.0105
0.963057
0.820953
0.665461
0.509079
0.352753
0.196319
0.0364119
1.58316
1.69063
1.04384
0.963256
0.820201
0.665193
0.508999
0.352734
0.196347
0.036643
1.57386
1.67537
1.07314
0.964192
0.819577
0.664936
0.508919
0.352711
0.196341
0.0366418
1.56722
1.66196
1.09841
0.965572
0.819061
0.664693
0.508841
0.352685
0.1963
0.0364084
1.56375
1.65041
1.1198
0.967156
0.818633
0.664465
0.508765
0.352657
0.196227
0.0359365
1.56357
1.64068
1.13757
0.968751
0.818269
0.664254
0.508694
0.352627
0.196124
0.0352131
1.56646
1.63271
1.15197
0.970205
0.817949
0.664059
0.508627
0.352597
0.195998
0.0342187
1.57218
1.62646
1.16325
0.971396
0.817654
0.663881
0.508566
0.352568
0.195858
0.0329265
1.58019
1.62191
1.17164
0.972234
0.817366
0.663721
0.508511
0.352541
0.195715
0.0313021
1.58863
1.61899
1.17735
0.972652
0.817075
0.663577
0.508464
0.352519
0.195584
0.0293038
1.59478
1.61776
1.18058
0.972628
0.81678
0.663454
0.508426
0.352502
0.195489
0.0269042
1.5978
1.61795
1.1813
0.972189
0.816501
0.663359
0.508399
0.352492
0.195454
0.024276

VECTORS velocity float
0 0 0
0 0 0
0.799019 -0.0328631 -0.000377394
0.690282 -0.00326081 0.000703895
0.726632 -0.00076856 8.48574e-05
0.735503 -0.000169668 1.73363e-05
0.737478 -3.83599e-05 3.70523e-06
0.737952 -9.9333e-06 -1.82733e-06
0.738387 -1.52895e-05 -3.4809e-05
0.752988 -0.00100019 -0.000854474
0 0 0
0 0 0
-0.148243 -0.0976377 -0.000155852
0.700537 -0.0128548 0.000548473
0.770076 -0.00248271 0.000101165
0.780885 -0.000535753 2.10775e-05
0.783163 -0.000120889 4.49639e-06
0.783705 -3.12592e-05 -1.75002e-06
0.784245 -5.35935e-05 -3.74796e-05
0.788882 -0.00192574 -0.000993281
0 0 0
0 0 0
0.818176 -0.165118 0.00112195
0.732978 -0.0226884 0.000470785
0.773737 -0.00428351 8.88531e-05
0.783632 -0.000920956 2.02361e-05
0.785824 -0.000207804 4.40413e-06
0.786347 -5.34512e-05 -1.85712e-06
0.78681 -9.12795e-05 -3.98171e-05
0.790697 -0.00169727 -0.00101607
0 0 0
0 0 0
-0.133513 -0.234459 0.000703975
0.717731 -0.0311713 0.000136625
0.774611 -0.0059509 7.64748e-05
0.783997 -0.00128365 1.85935e-05
0.786017 -0.000290036 4.08072e-06
0.786498 -7.39143e-05 -2.01595e-06
0.786881 -0.000112793 -4.14027e-05
0.790865 -0.00140092 -0.00102682
0.435627 -0.0184282 -0.0399224
0.877347 0.00571771 -0.0230692
0.825519 -0.262837 0.0111472
0.74293 -0.0392819 0.000836461
0.776444 -0.0074462 8.34297e-05
0.784306 -0.00161074 1.66986e-05
0.786087 -0.000364634 3.61518e-06
0.786514 -9.18252e-05 -2.19396e-06
0.786827 -0.000120455 -4.22988e-05
0.790938 -0.0011311 -0.00103288
0.506555 -0.0495124 -0.0469422
0.98138 0.0102714 -0.0203826
0.921662 -0.246548 0.0128678
0.760901 -0.0442335 0.00114486
0.778433 -0.00867263 8.20958e-05
0.784669 -0.00189238 1.42056e-05
0.786166 -0.00042956 3.02726e-06
0.786527 -0.000106706 -2.38933e-06
0.786782 -0.000117454 -4.28724e-05
0.790995 -0.000889185 -0.00103663
0.551398 -0.0680585 -0.0534117
0.982567 0.00675003 -0.0163272
0.92832 -0.223628 0.00783778
0.772863 -0.0468733 0.000833084
0.780496 -0.00961124 6.38506e-05
0.78508 -0.00212139 1.10791e-05
0.786256 -0.00048313 2.3462e-06
0.786543 -0.000118235 -2.59374e-06
0.786748 -0.000106289 -4.32497e-05
0.79104 -0.000669982 -0.00103896
0.589195 -0.0739229 -0.059443
0.976951 0.00228482 -0.0139438
0.926504 -0.19968 0.00440662
0.782833 -0.047711 0.000527647
0.782634 -0.0102513 4.42841e-05
0.785526 -0.00229233 7.75605e-06
0.786354 -0.000524004 1.60413e-06
0.786562 -0.00012622 -2.80131e-06
0.786725 -8.9006e-05 -4.35015e-05
0.791073 -0.000468117 -0.00104041
0.61993 -0.0689681 -0.0647094
0.971782 -0.00121153 -0.0127422
0.924286 -0.176456 0.00241071
0.791567 -0.0471251 0.000311192
0.784784 -0.0105933 2.55688e-05
0.785995 -0.0024017 4.37527e-06
0.78646 -0.000551205 8.26854e-07
0.786584 -0.000130589 -3.00699e-06
0.786713 -6.73302e-05 -4.36672e-05
0.791096 -0.000278394 -0.00104125
0.643409 -0.0553139 -0.0689816
0.967254 -0.00312995 -0.012178
0.922218 -0.154603 0.00114706
0.799173 -0.0454157 0.000159324
0.78688 -0.0106475 8.94932e-06
0.786473 -0.00244789 1.0602e-06
0.786569 -0.000564134 3.79426e-08