# vtk DataFile Version 2.0
TestTestTest
ASCII

DATASET STRUCTURED_GRID
DIMENSIONS 11 21 11
POINTS 2541 float
0 0 0
0.5 0 0
1 0 0
1.5 0 0
2 0 0
2.5 0 0
3 0 0
3.5 0 0
4 0 0
4.5 0 0
5 0 0
0 0.05 0
0.5 0.05 0
1 0.05 0
1.5 0.05 0
2 0.05 0
2.5 0.05 0
3 0.05 0
3.5 0.05 0
4 0.05 0
4.5 0.05 0
5 0.05 0
0 0.1 0
0.5 0.1 0
1 0.1 0
1.5 0.1 0
2 0.1 0
2.5 0.1 0
3 0.1 0
3.5 0.1 0
4 0.1 0
4.5 0.1 0
5 0.1 0
0 0.15 0
0.5 0.15 0
1 0.15 0
1.5 0.15 0
2 0.15 0
2.5 0.15 0
3 0.15 0
3.5 0.15 0
4 0.15 0
4.5 0.15 0
5 0.15 0
0 0.2 0
0.5 0.2 0
1 0.2 0
1.5 0.2 0
2 0.2 0
2.5 0.2 0
3 0.2 0
3.5 0.2 0
4 0.2 0
4.5 0.2 0
5 0.2 0
0 0.25 0
0.5 0.25 0
1 0.25 0
1.5 0.25 0
2 0.25 0
2.5 0.25 0
3 0.25 0
3.5 0.25 0
4 0.25 0
4.5 0.25 0
5 0.25 0
0 0.3 0
0.5 0.3 0
1 0.3 0
1.5 0.3 0
2 0.3 0
2.5 0.3 0
3 0.3 0
3.5 0.3 0
4 0.3 0
4.5 0.3 0
5 0.3 0
0 0.35 0
0.5 0.35 0
1 0.35 0
1.5 0.35 0
2 0.35 0
2.5 0.35 0
3 0.35 0
3.5 0.35 0
4 0.35 0
4.5 0.35 0
5 0.35 0
0 0.4 0
0.5 0.4 0
1 0.4 0
1.5 0.4 0
2 0.4 0
2.5 0.4 0
3 0.4 0
3.5 0.4 0
4 0.4 0
4.5 0.4 0
5 0.4 0
0 0.45 0
0.5 0.45 0
1 0.45 0
1.5 0.45 0
2 0.45 0
2.5 0.45 0
3 0.45 0
3.5 0.45 0
4 0.45 0
4.5 0.45 0
5 0.45 0
0 0.5 0
0.5 0.5 0
1 0.5 0
1.5 0.5 0
2 0.5 0
2.5 0.5 0
3 0.5 0
3.5 0.5 0
4 0.5 0
4.5 0.5 0
5 0.5 0
0 0.55 0
0.5 0.55 0
1 0.55 0
1.5 0.55 0
2 0.55 0
2.5 0.55 0
3 0.55 0
3.5 0.55 0
4 0.55 0
4.5 0.55 0
5 0.55 0
0 0.6 0
0.5 0.6 0
1 0.6 0
1.5 0.6 0
2 0.6 0
2.5 0.6 0
3 0.6 0
3.5 0.6 0
4 0.6 0
4.5 0.6 0
5 0.6 0
0 0.65 0
0.5 0.65 0
1 0.65 0
1.5 0.65 0
2 0.65 0
2.5 0.65 0
3 0.65 0
3.5 0.65 0
4 0.65 0
4.5 0.65 0
5 0.65 0
0 0.7 0
0.5 0.7 0
1 0.7 0
1.5 0.7 0
2 0.7 0
2.5 0.7 0
3 0.7 0
3.5 0.7 0
4 0.7 0
4.5 0.7 0
5 0.7 0
0 0.75 0
0.5 0.75 0
1 0.75 0
1.5 0.75 0
2 0.75 0
2.5 0.75 0
3 0.75 0
3.5 0.75 0
4 0.75 0
4.5 0.75 0
5 0.75 0
0 0.8 0
0.5 0.8 0
1 0.8 0
1.5 0.8 0
2 0.8 0
2.5 0.8 0
3 0.8 0
3.5 0.8 0
4 0.8 0
4.5 0.8 0
5 0.8 0
0 0.85 0
0.5 0.85 0
1 0.85 0
1.5 0.85 0
2 0.85 0
2.5 0.85 0
3 0.85 0
3.5 0.85 0
4 0.85 0
4.5 0.85 0
5 0.85 0
0 0.9 0
0.5 0.9 0
1 0.9 0
1.5 0.9 0
2 0.9 0
2.5 0.9 0
3 0.9 0
3.5 0.9 0
4 0.9 0
4.5 0.9 0
5 0.9 0
0 0.95 0
0.5 0.95 0
1 0.95 0
1.5 0.95 0
2 0.95 0
2.5 0.95 0
3 0.95 0
3.5 0.95 0
4 0.95 0
4.5 0.95 0
5 0.95 0
0 1 0
0.5 1 0
1 1 0
1.5 1 0
2 1 0
2.5 1 0
3 1 0
3.5 1 0
4 1 0
4.5 1 0
5 1 0
0 0 0.1
0.5 0 0.1
1 0 0.1
1.5 0 0.1
2 0 0.1
2.5 0 0.1
3 0 0.1
3.5 0 0.1
4 0 0.1
4.5 0 0.1
5 0 0.1
0 0.05 0.1
0.5 0.05 0.1
1 0.05 0.1
1.5 0.05 0.1
2 0.05 0.1
2.5 0.05 0.1
3 0.05 0.1
3.5 0.05 0.1
4 0.05 0.1
4.5 0.05 0.1
5 0.05 0.1
0 0.1 0.1
0.5 0.1 0.1
1 0.1 0.1
1.5 0.1 0.1
2 0.1 0.1
2.5 0.1 0.1
3 0.1 0.1
3.5 0.1 0.1
4 0.1 0.1
4.5 0.1 0.1
5 0.1 0.1
0 0.15 0.1
0.5 0.15 0.1
1 0.15 0.1
1.5 0.15 0.1
2 0.15 0.1
2.5 0.15 0.1
3 0.15 0.1
3.5 0.15 0.1
4 0.15 0.1
4.5 0.15 0.1
5 0.15 0.1
0 0.2 0.1
0.5 0.2 0.1
1 0.2 0.1
1.5 0.2 0.1
2 0.2 0.1
2.5 0.2 0.1
3 0.2 0.1
3.5 0.2 0.1
4 0.2 0.1
4.5 0.2 0.1
5 0.2 0.1
0 0.25 0.1
0.5 0.25 0.1
1 0.25 0.1
1.5 0.25 0.1
2 0.25 0.1
2.5 0.25 0.1
3 0.25 0.1
3.5 0.25 0.1
4 0.25 0.1
4.5 0.25 0.1
5 0.25 0.1
0 0.3 0.1
0.5 0.3 0.1
1 0.3 0.1
1.5 0.3 0.1
2 0.3 0.1
2.5 0.3 0.1
3 0.3 0.1
3.5 0.3 0.1
4 0.3 0.1
4.5 0.3 0.1
5 0.3 0.1
0 0.35 0.1
0.5 0.35 0.1
1 0.35 0.1
1.5 0.35 0.1
2 0.35 0.1
2.5 0.35 0.1
3 0.35 0.1
3.5 0.35 0.1
4 0.35 0.1
4.5 0.35 0.1
5 0.35 0.1
0 0.4 0.1
0.5 0.4 0.1
1 0.4 0.1
1.5 0.4 0.1
2 0.4 0.1
2.5 0.4 0.1
3 0.4 0.1
3.5 0.4 0.1
4 0.4 0.1
4.5 0.4 0.1
5 0.4 0.1
0 0.45 0.1
0.5 0.45 0.1
1 0.45 0.1
1.5 0.45 0.1
2 0.45 0.1
2.5 0.45 0.1
3 0.45 0.1
3.5 0.45 0.1
4 0.45 0.1
4.5 0.45 0.1
5 0.45 0.1
0 0.5 0.1
0.5 0.5 0.1
1 0.5 0.1
1.5 0.5 0.1
2 0.5 0.1
2.5 0.5 0.1
3 0.5 0.1
3.5 0.5 0.1
4 0.5 0.1
4.5 0.5 0.1
5 0.5 0.1
0 0.55 0.1
0.5 0.55 0.1
1 0.55 0.1
1.5 0.55 0.1
2 0.55 0.1
2.5 0.55 0.1
3 0.55 0.1
3.5 0.55 0.1
4 0.55 0.1
4.5 0.55 0.1
5 0.55 0.1
0 0.6 0.1
0.5 0.6 0.1
1 0.6 0.1
1.5 0.6 0.1
2 0.6 0.1
2.5 0.6 0.1
3 0.6 0.1
3.5 0.6 0.1
4 0.6 0.1
4.5 0.6 0.1
5 0.6 0.1
0 0.65 0.1
0.5 0.65 0.1
1 0.65 0.1
1.5 0.65 0.1
2 0.65 0.1
2.5 0.65 0.1
3 0.65 0.1
3.5 0.65 0.1
4 0.65 0.1
4.5 0.65 0.1
5 0.65 0.1
0 0.7 0.1
0.5 0.7 0.1
1 0.7 0.1
1.5 0.7 0.1
2 0.7 0.1
2.5 0.7 0.1
3 0.7 0.1
3.5 0.7 0.1
4 0.7 0.1
4.5 0.7 0.1
5 0.7 0.1
0 0.75 0.1
0.5 0.75 0.1
1 0.75 0.1
1.5 0.75 0.1
2 0.75 0.1
2.5 0.75 0.1
3 0.75 0.1
3.5 0.75 0.1
4 0.75 0.1
4.5 0.75 0.1
5 0.75 0.1
0 0.8 0.1
0.5 0.8 0.1
1 0.8 0.1
1.5 0.8 0.1
2 0.8 0.1
2.5 0.8 0.1
3 0.8 0.1
3.5 0.8 0.1
4 0.8 0.1
4.5 0.8 0.1
5 0.8 0.1
0 0.85 0.1
0.5 0.85 0.1
1 0.85 0.1
1.5 0.85 0.1
2 0.85 0.1
2.5 0.85 0.1
3 0.85 0.1
3.5 0.85 0.1
4 0.85 0.1
4.5 0.85 0.1
5 0.85 0.1
0 0.9 0.1
0.5 0.9 0.1
1 0.9 0.1
1.5 0.9 0.1
2 0.9 0.1
2.5 0.9 0.1
3 0.9 0.1
3.5 0.9 0.1
4 0.9 0.1
4.5 0.9 0.1
5 0.9 0.1
0 0.95 0.1
0.5 0.95 0.1
1 0.95 0.1
1.5 0.95 0.1
2 0.95 0.1
2.5 0.95 0.1
3 0.95 0.1
3.5 0.95 0.1
4 0.95 0.1
4.5 0.95 0.1
5 0.95 0.1
0 1 0.1
0.5 1 0.1
1 1 0.1
1.5 1 0.1
2 1 0.1
2.5 1 0.1
3 1 0.1
3.5 1 0.1
4 1 0.1
4.5 1 0.1
5 1 0.1
0 0 0.2
0.5 0 0.2
1 0 0.2
1.5 0 0.2
2 0 0.2
2.5 0 0.2
3 0 0.2
3.5 0 0.2
4 0 0.2
4.5 0 0.2
5 0 0.2
0 0.05 0.2
0.5 0.05 0.2
1 0.05 0.2
1.5 0.05 0.2
2 0.05 0.2
2.5 0.05 0.2
3 0.05 0.2
3.5 0.05 0.2
4 0.05 0.2
4.5 0.05 0.2
5 0.05 0.2
0 0.1 0.2
0.5 0.1 0.2
1 0.1 0.2
1.5 0.1 0.2
2 0.1 0.2
2.5 0.1 0.2
3 0.1 0.2
3.5 0.1 0.2
4 0.1 0.2
4.5 0.1 0.2
5 0.1 0.2
0 0.15 0.2
0.5 0.15 0.2
1 0.15 0.2
1.5 0.15 0.2
2 0.15 0.2
2.5 0.15 0.2
3 0.15 0.2
3.5 0.15 0.2
4 0.15 0.2
4.5 0.15 0.2
5 0.15 0.2
0 0.2 0.2
0.5 0.2 0.2
1 0.2 0.2
1.5 0.2 0.2
2 0.2 0.2
2.5 0.2 0.2
3 0.2 0.2
3.5 0.2 0.2
4 0.2 0.2
4.5 0.2 0.2
5 0.2 0.2
0 0.25 0.2
0.5 0.25 0.2
1 0.25 0.2
1.5 0.25 0.2
2 0.25 0.2
2.5 0.25 0.2
3 0.25 0.2
3.5 0.25 0.2
4 0.25 0.2
4.5 0.25 0.2
5 0.25 0.2
0 0.3 0.2
0.5 0.3 0.2
1 0.3 0.2
1.5 0.3 0.2
2 0.3 0.2
2.5 0.3 0.2
3 0.3 0.2
3.5 0.3 0.2
4 0.3 0.2
4.5 0.3 0.2
5 0.3 0.2
0 0.35 0.2
0.5 0.35 0.2
1 0.35 0.2
1.5 0.35 0.2
2 0.35 0.2
2.5 0.35 0.2
3 0.35 0.2
3.5 0.35 0.2
4 0.35 0.2
4.5 0.35 0.2
5 0.35 0.2
0 0.4 0.2
0.5 0.4 0.2
1 0.4 0.2
1.5 0.4 0.2
2 0.4 0.2
2.5 0.4 0.2
3 0.4 0.2
3.5 0.4 0.2
4 0.4 0.2
4.5 0.4 0.2
5 0.4 0.2
0 0.45 0.2
0.5 0.45 0.2
1 0.45 0.2
1.5 0.45 0.2
2 0.45 0.2
2.5 0.45 0.2
3 0.45 0.2
3.5 0.45 0.2
4 0.45 0.2
4.5 0.45 0.2
5 0.45 0.2
0 0.5 0.2
0.5 0.5 0.2
1 0.5 0.2
1.5 0.5 0.2
2 0.5 0.2
2.5 0.5 0.2
3 0.5 0.2
3.5 0.5 0.2
4 0.5 0.2
4.5 0.5 0.2
5 0.5 0.2
0 0.55 0.2
0.5 0.55 0.2
1 0.55 0.2
1.5 0.55 0.2
2 0.55 0.2
2.5 0.55 0.2
3 0.55 0.2
3.5 0.55 0.2
4 0.55 0.2
4.5 0.55 0.2
5 0.55 0.2
0 0.6 0.2
0.5 0.6 0.2
1 0.6 0.2
1.5 0.6 0.2
2 0.6 0.2
2.5 0.6 0.2
3 0.6 0.2
3.5 0.6 0.2
4 0.6 0.2
4.5 0.6 0.2
5 0.6 0.2
0 0.65 0.2
0.5 0.65 0.2
1 0.65 0.2
1.5 0.65 0.2
2 0.65 0.2
2.5 0.65 0.2
3 0.65 0.2
3.5 0.65 0.2
4 0.65 0.2
4.5 0.65 0.2
5 0.65 0.2
0 0.7 0.2
0.5 0.7 0.2
1 0.7 0.2
1.5 0.7 0.2
2 0.7 0.2
2.5 0.7 0.2
3 0.7 0.2
3.5 0.7 0.2
4 0.7 0.2
4.5 0.7 0.2
5 0.7 0.2
0 0.75 0.2
0.5 0.75 0.2
1 0.75 0.2
1.5 0.75 0.2
2 0.75 0.2
2.5 0.75 0.2
3 0.75 0.2
3.5 0.75 0.2
4 0.75 0.2
4.5 0.75 0.2
5 0.75 0.2
0 0.8 0.2
0.5 0.8 0.2
1 0.8 0.2
1.5 0.8 0.2
2 0.8 0.2
2.5 0.8 0.2
3 0.8 0.2
3.5 0.8 0.2
4 0.8 0.2
4.5 0.8 0.2
5 0.8 0.2
0 0.85 0.2
0.5 0.85 0.2
1 0.85 0.2
1.5 0.85 0.2
2 0.85 0.2
2.5 0.85 0.2
3 0.85 0.2
3.5 0.85 0.2
4 0.85 0.2
4.5 0.85 0.2
5 0.85 0.2
0 0.9 0.2
0.5 0.9 0.2
1 0.9 0.2
1.5 0.9 0.2
2 0.9 0.2
2.5 0.9 0.2
3 0.9 0.2
3.5 0.9 0.2
4 0.9 0.2
4.5 0.9 0.2
5 0.9 0.2
0 0.95 0.2
0.5 0.95 0.2
1 0.95 0.2
1.5 0.95 0.2
2 0.95 0.2
2.5 0.95 0.2
3 0.95 0.2
3.5 0.95 0.2
4 0.95 0.2
4.5 0.95 0.2
5 0.95 0.2
0 1 0.2
0.5 1 0.2
1 1 0.2
1.5 1 0.2
2 1 0.2
2.5 1 0.2
3 1 0.2
3.5 1 0.2
4 1 0.2
4.5 1 0.2
5 1 0.2
0 0 0.3
0.5 0 0.3
1 0 0.3
1.5 0 0.3
2 0 0.3
2.5 0 0.3
3 0 0.3
3.5 0 0.3
4 0 0.3
4.5 0 0.3
5 0 0.3
0 0.05 0.3
0.5 0.05 0.3
1 0.05 0.3
1.5 0.05 0.3
2 0.05 0.3
2.5 0.05 0.3
3 0.05 0.3
3.5 0.05 0.3
4 0.05 0.3
4.5 0.05 0.3
5 0.05 0.3
0 0.1 0.3
0.5 0.1 0.3
1 0.1 0.3
1.5 0.1 0.3
2 0.1 0.3
2.5 0.1 0.3
3 0.1 0.3
3.5 0.1 0.3
4 0.1 0.3
4.5 0.1 0.3
5 0.1 0.3
0 0.15 0.3
0.5 0.15 0.3
1 0.15 0.3
1.5 0.15 0.3
2 0.15 0.3
2.5 0.15 0.3
3 0.15 0.3
3.5 0.15 0.3
4 0.15 0.3
4.5 0.15 0.3
5 0.15 0.3
0 0.2 0.3
0.5 0.2 0.3
1 0.2 0.3
1.5 0.2 0.3
2 0.2 0.3
2.5 0.2 0.3
3 0.2 0.3
3.5 0.2 0.3
4 0.2 0.3
4.5 0.2 0.3
5 0.2 0.3
0 0.25 0.3
0.5 0.25 0.3
1 0.25 0.3
1.5 0.25 0.3
2 0.25 0.3
2.5 0.25 0.3
3 0.25 0.3
3.5 0.25 0.3
4 0.25 0.3
4.5 0.25 0.3
5 0.25 0.3
0 0.3 0.3
0.5 0.3 0.3
1 0.3 0.3
1.5 0.3 0.3
2 0.3 0.3
2.5 0.3 0.3
3 0.3 0.3
3.5 0.3 0.3
4 0.3 0.3
4.5 0.3 0.3
5 0.3 0.3
0 0.35 0.3
0.5 0.35 0.3
1 0.35 0.3
1.5 0.35 0.3
2 0.35 0.3
2.5 0.35 0.3
3 0.35 0.3
3.5 0.35 0.3
4 0.35 0.3
4.5 0.35 0.3
5 0.35 0.3
0 0.4 0.3
0.5 0.4 0.3
1 0.4 0.3
1.5 0.4 0.3
2 0.4 0.3
2.5 0.4 0.3
3 0.4 0.3
3.5 0.4 0.3
4 0.4 0.3
4.5 0.4 0.3
5 0.4 0.3
0 0.45 0.3
0.5 0.45 0.3
1 0.45 0.3
1.5 0.45 0.3
2 0.45 0.3
2.5 0.45 0.3
3 0.45 0.3
3.5 0.45 0.3
4 0.45 0.3
4.5 0.45 0.3
5 0.45 0.3
0 0.5 0.3
0.5 0.5 0.3
1 0.5 0.3
1.5 0.5 0.3
2 0.5 0.3
2.5 0.5 0.3
3 0.5 0.3
3.5 0.5 0.3
4 0.5 0.3
4.5 0.5 0.3
5 0.5 0.3
0 0.55 0.3
0.5 0.55 0.3
1 0.55 0.3
1.5 0.55 0.3
2 0.55 0.3
2.5 0.55 0.3
3 0.55 0.3
3.5 0.55 0.3
4 0.55 0.3
4.5 0.55 0.3
5 0.55 0.3
0 0.6 0.3
0.5 0.6 0.3
1 0.6 0.3
1.5 0.6 0.3
2 0.6 0.3
2.5 0.6 0.3
3 0.6 0.3
3.5 0.6 0.3
4 0.6 0.3
4.5 0.6 0.3
5 0.6 0.3
0 0.65 0.3
0.5 0.65 0.3
1 0.65 0.3
1.5 0.65 0.3
2 0.65 0.3
2.5 0.65 0.3
3 0.65 0.3
3.5 0.65 0.3
4 0.65 0.3
4.5 0.65 0.3
5 0.65 0.3
0 0.7 0.3
0.5 0.7 0.3
1 0.7 0.3
1.5 0.7 0.3
2 0.7 0.3
2.5 0.7 0.3
3 0.7 0.3
3.5 0.7 0.3
4 0.7 0.3
4.5 0.7 0.3
5 0.7 0.3
0 0.75 0.3
0.5 0.75 0.3
1 0.75 0.3
1.5 0.75 0.3
2 0.75 0.3
2.5 0.75 0.3
3 0.75 0.3
3.5 0.75 0.3
4 0.75 0.3
4.5 0.75 0.3
5 0.75 0.3
0 0.8 0.3
0.5 0.8 0.3
1 0.8 0.3
1.5 0.8 0.3
2 0.8 0.3
2.5 0.8 0.3
3 0.8 0.3
3.5 0.8 0.3
4 0.8 0.3
4.5 0.8 0.3
5 0.8 0.3
0 0.85 0.3
0.5 0.85 0.3
1 0.85 0.3
1.5 0.85 0.3
2 0.85 0.3
2.5 0.85 0.3
3 0.85 0.3
3.5 0.85 0.3
4 0.85 0.3
4.5 0.85 0.3
5 0.85 0.3
0 0.9 0.3
0.5 0.9 0.3
1 0.9 0.3
1.5 0.9 0.3
2 0.9 0.3
2.5 0.9 0.3
3 0.9 0.3
3.5 0.9 0.3
4 0.9 0.3
4.5 0.9 0.3
5 0.9 0.3
0 0.95 0.3
0.5 0.95 0.3
1 0.95 0.3
1.5 0.95 0.3
2 0.95 0.3
2.5 0.95 0.3
3 0.95 0.3
3.5 0.95 0.3
4 0.95 0.3
4.5 0.95 0.3
5 0.95 0.3
0 1 0.3
0.5 1 0.3
1 1 0.3
1.5 1 0.3
2 1 0.3
2.5 1 0.3
3 1 0.3
3.5 1 0.3
4 1 0.3
4.5 1 0.3
5 1 0.3
0 0 0.4
[...]
CELL_DATA 2000
SCALARS pressure float 1
LOOKUP_TABLE default
0
0
0.886368
1.02701
0.847544
0.683551
0.522201
0.361519
0.200171
0.0244179
0
0
0.886618
1.01896
0.846902
0.68343
0.522174
0.361516
0.200218
0.027265
0
0
0.847465
1.01439
0.846065
0.683277
0.522138
0.361513
0.200323
0.0297802
0
0
0.841121
1.00381
0.845122
0.683103
0.522096
0.361512
0.200458
0.0318659
1.84707
2.00425
0.857016
0.994841
0.84413
0.682915
0.52205
0.361511
0.200603
0.0335625
1.84159
1.98494
0.898551
0.989011
0.843197
0.682719
0.521999
0.361509
0.200743
0.0349129
1.83124
1.95882
0.947167
0.986111
0.842391
0.682524
0.521945
0.361505
0.200866
0.0359521
1.81699
1.93102
0.996296
0.985415
0.841747
0.682334
0.52189
0.361499
0.200964
0.0367077
1.80189
1.90414
1.04176
0.986324
0.841269
0.682154
0.521834
0.361489
0.20103
0.0372001
1.78813
1.87944
1.08246
0.98833
0.840943
0.681985
0.521777
0.361475
0.201062
0.0374425
1.77663
1.85744
1.11811
0.991018
0.840745
0.681829
0.521721
0.361458
0.201057
0.0374415
1.76803
1.83824
1.14879
0.994054
0.840645
0.681685
0.521666
0.361437
0.201016
0.0371972
1.76295
1.82178
1.17475
0.997166
0.840611
0.681553
0.521613
0.361413
0.200939
0.0367031
1.76154
1.80792
1.19632
1.00014
0.840613
0.681431
0.521562
0.361388
0.200833
0.0359457
1.76354
1.79656
1.21383
1.0028
0.840621
0.681317
0.521514
0.361361
0.200701
0.0349048
1.76865
1.7876
1.22761
1.00501
0.84061
0.681209
0.52147
0.361335
0.200553
0.0335529
1.77627
1.781
1.23794
1.00668
0.840559
0.681107
0.521429
0.361311
0.200401
0.0318549
1.78452
1.77669
1.24506
1.00774
0.84045
0.681009
0.521392
0.36129
0.20026
0.0297681
1.79067
1.77468
1.24919
1.00813
0.840275
0.680915
0.521361
0.361274
0.200151
0.0272518
1.79397
1.77466
1.25032
1.00787
0.840045
0.680831
0.521336
0.361264
0.2001
0.024404
0
0
0.891857
1.02262
0.84717
0.683467
0.522183
0.361531
0.200393
0.0292458
0
0
0.890926
1.0158
0.84641
0.683326
0.522152
0.361527
0.200454
0.0327901
0
0
0.850029
1.01168
0.845618
0.683175
0.522116
0.361525
0.200575
0.0354181
0
0
0.870621
1.00353
0.844699
0.683008
0.522076
0.361525
0.20072
0.0375569
1.82996
2.05147
0.79159
0.992484
0.843743
0.682829
0.522032
0.361525
0.200871
0.0392862
1.8236
2.03776
0.840793
0.984839
0.842851
0.682647
0.521984
0.361524
0.201015
0.040657
1.81356
1.99247
0.909942
0.982891
0.842113
0.682467
0.521934
0.361521
0.20114
0.0417091
1.8009
1.95306
0.972651
0.983326
0.841547
0.682293
0.521882
0.361516
0.201239
0.0424727
1.78637
1.91943
1.02715
0.985044
0.841149
0.682129
0.521829
0.361507
0.201307
0.0429697
1.77156
1.89083
1.0736
0.987626
0.840896
0.681977
0.521777
0.361494
0.201339
0.0432143
1.75916
1.86633
1.11294
0.990727
0.840763
0.681836
0.521725
0.361478
0.201335
0.0432134
1.75015
1.84538
1.14601
0.994058
0.840719
0.681708
0.521674
0.361458
0.201293
0.0429671
1.74492
1.82752
1.17353
0.997382
0.840734
0.68159
0.521624
0.361435
0.201216
0.0424683
1.74364
1.81238
1.19609
1.00051
0.840777
0.68148
0.521577
0.36141
0.201108
0.0417031
1.74629
1.79972
1.21419
1.00327
0.840819
0.681377
0.521532
0.361384
0.200975
0.0406495
1.75221
1.78931
1.22828
1.00556
0.840836
0.681278
0.521489
0.361358
0.200824
0.0392772
1.75905
1.78117
1.23871
1.00728
0.840805
0.681183
0.52145
0.361333
0.200666
0.0375466
1.76557
1.77551
1.24578
1.00837
0.840712
0.68109
0.521415
0.361312
0.200515
0.0354067
1.7714
1.77249
1.24972
1.00875
0.840541
0.680997
0.521384
0.361296
0.200389
0.0327777
1.77588
1.77263
1.25065
1.00837
0.840266
0.680899
0.521356
0.361285
0.200325
0.0292325
0
0
0.89859
1.02031
0.846939
0.683403
0.522169
0.361554
0.200708
0.0327054
0
0
0.895773
1.01456
0.846189
0.683261
0.522137
0.36155
0.200775
0.0363544
0
0
0.862797
1.01158
0.845446
0.683113
0.522102
0.361549
0.200903
0.0390518
0
0
0.884375
1.0052
0.844598
0.682952
0.522063
0.361549
0.201055
0.0412389
1.81358
2.06549
0.762599
0.994006
0.84368
0.682782
0.52202
0.36155
0.201211
0.0430015
1.80628
2.08931
0.772104
0.983486
0.842767
0.682607
0.521975
0.36155
0.201359
0.044395
1.79824
2.04173
0.861675
0.979359
0.84198
0.682434
0.521927
0.361548
0.201487
0.0454624
1.79321
1.98958
0.942514
0.98012
0.841398
0.682269
0.521878
0.361544
0.201588
0.046236
1.78945
1.94678
1.0076
0.982595
0.841016
0.682114
0.521828
0.361536
0.201657
0.046739
1.78487
1.91161
1.06109
0.985819
0.840796
0.681971
0.521778
0.361524
0.20169
0.0469864
1.77886
1.88267
1.10524
0.989436
0.8407
0.68184
0.521729
0.361508
0.201685
0.0469856
1.77229
1.85863
1.14162
0.993178
0.840695
0.681721
0.52168
0.361489
0.201643
0.0467365
1.76687
1.83847
1.17141
0.996826
0.840747
0.681612
0.521634
0.361466
0.201566
0.0462318
1.76273
1.82157
1.1955
1.0002
0.840824
0.681511
0.521588
0.361442
0.201456
0.0454567
1.75843
1.80747
1.2146
1.00317
0.840897
0.681415
0.521545
0.361416
0.20132
0.0443878
1.75353
1.79581
1.22921
1.00562
0.840941
0.681324
0.521505
0.36139
0.201165
0.0429929
1.74913
1.78614
1.23974
1.00747
0.840936
0.681234
0.521467
0.361365
0.201002
0.0412291
1.74793
1.77866
1.24667
1.00864
0.840863
0.681144
0.521433
0.361344
0.200845
0.0390408
1.75204
1.7742
1.25045
1.00906
0.840699
0.681053
0.521402
0.361327
0.200712
0.0363425
1.75803
1.77366
1.25124
1.00867
0.840421
0.680954
0.521373
0.361315
0.200642
0.0326926
0
0
0.899437
1.01973
0.846832
0.683364
0.522161
0.361577
0.200977
0.0348615
0
0
0.895879
1.01429
0.846097
0.683223
0.522129
0.361573
0.201046
0.0385328
0
0
0.861514
1.01183
0.845388
0.683078
0.522094
0.361573
0.201177
0.0412557
0
0
0.876704
1.00615
0.844586
0.682922
0.522056
0.361574
0.201332
0.0434658
1.80563
2.09143
0.750922
0.995311
0.843719
0.682758
0.522014
0.361575
0.201491
0.0452471
1.79826
2.12131
0.741989
0.984369
0.842839
0.68259
0.52197
0.361576
0.201641
0.046655
1.79258
2.07622
0.82465
0.978972
0.842026
0.682422
0.521924
0.361575
0.201771
0.0477329
1.79426
2.01903
0.916019
0.978783
0.841378
0.682259
0.521876
0.36157
0.201874
0.0485138
1.80294
1.97033
0.990451
0.981015
0.840947
0.682107
0.521828
0.361563
0.201944
0.0490215
1.81367
1.92967
1.05002
0.984281
0.840703
0.681967
0.52178
0.361551
0.201978
0.0492711
1.82052
1.89512
1.09835
0.988046
0.8406
0.681839
0.521732
0.361536
0.201973
0.0492703
1.82086
1.86641
1.13782
0.991985
0.8406
0.681724
0.521685
0.361517
0.201931
0.0490191
1.81531
1.84376
1.16991
0.995848
0.840664
0.681619
0.52164
0.361495
0.201852
0.0485098
1.80388
1.82655
1.19552
0.999459
0.840763
0.681523
0.521596
0.361471
0.201741
0.0477274
1.78617
1.81301
1.21532
1.00268
0.840871
0.681433
0.521555
0.361445
0.201603
0.046648
1.76534
1.80131
1.23006
1.00538
0.840955
0.681347
0.521515
0.361419
0.201446
0.0452387
1.74808
1.79097
1.24055
1.0074
0.840982
0.681263
0.521479
0.361394
0.201281
0.0434563
1.7401
1.78251
1.2474
1.00868
0.84093
0.681176
0.521445
0.361373
0.20112
0.0412451
1.74209
1.77703
1.25108
1.00917
0.840778
0.681087
0.521414
0.361355
0.200984
0.0385212
1.74846
1.77595
1.25179
1.00879
0.840504
0.680988
0.521385
0.361343
0.200912
0.034849
0
0
0.898052
1.0196
0.846794
0.683347
0.522157
0.361591
0.201128
0.0358899
0
0
0.893731
1.01425
0.846067
0.683206
0.522125
0.361587
0.201197
0.0395669
0
0
0.857592
1.01197
0.845373
0.683063
0.522091
0.361587
0.201329
0.0422981
0
0
0.870472
1.0065
0.844594
0.682909
0.522053
0.361588
0.201485
0.0445169
1.80292
2.10635
0.74298
0.995835
0.843751
0.682748
0.522012
0.36159
0.201646
0.0463059
1.79567
2.13743
0.732435
0.984936
0.842894
0.682583
0.521968
0.361591
0.201797
0.0477203
1.79205
2.0927
0.810864
0.979497
0.842101
0.68242
0.521923
0.36159
0.201928
0.0488033
1.79858
2.03448
0.901228
0.979139
0.841456
0.68226
0.521876
0.361586
0.202032
0.0495878
1.81441
1.98338
0.978765
0.980954
0.840986
0.682108
0.521829
0.361579
0.202102
0.0500978
1.83418
1.93941
1.04275
0.983725
0.840679
0.681966
0.521781
0.361568
0.202136
0.0503486
1.85045
1.90127
1.0947
0.98715
0.84052
0.681836
0.521734
0.361553
0.202132
0.0503478
1.85644
1.86919
1.13649
0.990994
0.840491
0.68172
0.521688
0.361534
0.202089
0.0500954
1.85076
1.84504
1.16975
0.994999
0.840563
0.681617
0.521643
0.361512
0.20201
0.0495839
1.83344
1.82825
1.19575
0.998868
0.840695
0.681525
0.5216
0.361488
0.201899
0.0487978
1.80603
1.81545
1.21567
1.00232
0.840835
0.681439
0.521559
0.361462
0.20176
0.0477134
1.77585
1.80425
1.23048
1.00518
0.840945
0.681357
0.521521
0.361436
0.201602
0.0462977
1.75122
1.79389
1.24099
1.00731
0.840992
0.681275
0.521484
0.361411
0.201435
0.0445075
1.73835
1.78503
1.24781
1.00866
0.840952
0.681191
0.521451
0.361389
0.201273
0.0422876
1.73839
1.77904
1.25144
1.00918
0.840808
0.681102
0.521421
0.361372
0.201136
0.0395554
1.7448
1.77767
1.2521
1.00882
0.840537
0.681004
0.521392
0.36136
0.201063
0.0358776
0
0
0.898052
1.0196
0.846794
0.683347
0.522157
0.361591
0.201128
0.0358899
0
0
0.893731
1.01425
0.846067
0.683206
0.522125
0.361587
0.201197
0.0395669
0
0
0.857592
1.01197
0.845373
0.683063
0.522091
0.361587
0.201329
0.0422981
0
0
0.870472
1.0065
0.844594
0.682909
0.522053
0.361588
0.201485
0.0445169
1.80292
2.10635
0.74298
0.995835
0.843751
0.682748
0.522012
0.36159
0.201646
0.0463059
1.79567
2.13743
0.732435
0.984936
0.842894
0.682583
0.521968
0.361591
0.201797
0.0477203
1.79205
2.0927
0.810864
0.979497
0.842101
0.68242
0.521923
0.36159
0.201928
0.0488033
1.79858
2.03448
0.901228
0.979139
0.841456
0.68226
0.521876
0.361586
0.202032
0.0495878
1.81441
1.98338
0.978765
0.980954
0.840986
0.682108
0.521829
0.361579
0.202102
0.0500978
1.83418
1.93941
1.04275
0.983725
0.840679
0.681966
0.521781
0.361568
0.202136
0.0503486
1.85045
1.90127
1.0947
0.98715
0.84052
0.681836
0.521734
0.361553
0.202132
0.0503478
1.85644
1.86919
1.13649
0.990994
0.840491
0.68172
0.521688
0.361534
0.202089
0.0500954
1.85076
1.84504
1.16975
0.994999
0.840563
0.681617
0.521643
0.361512
0.20201
0.0495839
1.83344
1.82825
1.19575
0.998868
0.840695
0.681525
0.5216
0.361488
0.201899
0.0487978
1.80603
1.81545
1.21567
1.00232
0.840835
0.681439
0.521559
0.361462
0.20176
0.0477134
1.77585
1.80425
1.23048
1.00518
0.840945
0.681357
0.521521
0.361436
0.201602
0.0462977
1.75122
1.79389
1.24099
1.00731
0.840992
0.681275
0.521484
0.361411
0.201435
0.0445075
1.73835
1.78503
1.24781
1.00866
0.840952
0.681191
0.521451
0.361389
0.201273
0.0422876
1.73839
1.77904
1.25144
1.00918
0.840808
0.681102
0.521421
0.361372
0.201136
0.0395554
1.7448
1.77767
1.2521
1.00882
0.840537
0.681004
0.521392
0.36136
0.201063
0.0358776
0
0
0.899437
1.01973
0.846832
0.683364
0.522161
0.361577
0.200977
0.0348615
0
0
0.895879
1.01429
0.846097
0.683223
0.522129
0.361573
0.201046
0.0385328
0
0
0.861514
1.01183
0.845388
0.683078
0.522094
0.361573
0.201177
0.0412557
0
0
0.876704
1.00615
0.844586
0.682922
0.522056
0.361574
0.201332
0.0434658
1.80563
2.09143
0.750922
0.995311
0.843719
0.682758
0.522014
0.361575
0.201491
0.0452471
1.79826
2.12131
0.741989
0.984369
0.842839
0.68259
0.52197
0.361576
0.201641
0.046655
1.79258
2.07622
0.82465
0.978972
0.842026
0.682422
0.521924
0.361575
0.201771
0.0477329
1.79426
2.01903
0.916019
0.978783
0.841378
0.682259
0.521876
0.36157
0.201874
0.0485138
1.80294
1.97033
0.990451
0.981015
0.840947
0.682107
0.521828
0.361563
0.201944
0.0490215
1.81367
1.92967
1.05002
0.984281
0.840703
0.681967
0.52178
0.361551
0.201978
0.0492711
1.82052
1.89512
1.09835
0.988046
0.8406
0.681839
0.521732
0.361536
0.201973
0.0492703
1.82086
1.86641
1.13782
0.991985
0.8406
0.681724
0.521685
0.361517
0.201931
0.0490191
1.81531
1.84376
1.16991
0.995848
0.840664
0.681619
0.52164
0.361495
0.201852
0.0485098
1.80388
1.82655
1.19552
0.999459
0.840763
0.681523
0.521596
0.361471
0.201741
0.0477274
1.78617
1.81301
1.21532
1.00268
0.840871
0.681433
0.521555
0.361445
0.201603
0.046648
1.76534
1.80131
1.23006
1.00538
0.840955
0.681347
0.521515
0.361419
0.201446
0.0452387
1.74808
1.79097
1.24055
1.0074
0.840982
0.681263
0.521479
0.361394
0.201281
0.0434563
1.7401
1.78251
1.2474
1.00868
0.84093
0.681176
0.521445
0.361373
0.20112
0.0412451
1.74209
1.77703
1.25108
1.00917
0.840778
0.681087
0.521414
0.361355
0.200984
0.0385212
1.74846
1.77595
1.25179
1.00879
0.840504
0.680988
0.521385
0.361343
0.200912
0.034849
0
0
0.89859
1.02031
0.846939
0.683403
0.522169
0.361554
0.200708
0.0327054
0
0
0.895773
1.01456
0.846189
0.683261
0.522137
0.36155
0.200775
0.0363544
0
0
0.862797
1.01158
0.845446
0.683113
0.522102
0.361549
0.200903
0.0390518
0
0
0.884375
1.0052
0.844598
0.682952
0.522063
0.361549
0.201055
0.0412389
1.81358
2.06549
0.762599
0.994006
0.84368
0.682782
0.52202
0.36155
0.201211
0.0430015
1.80628
2.08931
0.772104
0.983486
0.842767
0.682607
0.521975
0.36155
0.201359
0.044395
1.79824
2.04173
0.861675
0.979359
0.84198
0.682434
0.521927
0.361548
0.201487
0.0454624
1.79321
1.98958
0.942514
0.98012
0.841398
0.682269
0.521878
0.361544
0.201588
0.046236
1.78945
1.94678
1.0076
0.982595
0.841016
0.682114
0.521828
0.361536
0.201657
0.046739
1.78487
1.91161
1.06109
0.985819
0.840796
0.681971
0.521778
0.361524
0.20169
0.0469864
1.77886
1.88267
1.10524
0.989436
0.8407
0.68184
0.521729
0.361508
0.201685
0.0469856
1.77229
1.85863
1.14162
0.993178
0.840695
0.681721
0.52168
0.361489
0.201643
0.0467365
1.76687
1.83847
1.17141
0.996826
0.840747
0.681612
0.521634
0.361466
0.201566
0.0462318
1.76273
1.82157
1.1955
1.0002
0.840824
0.681511
0.521588
0.361442
0.201456
0.0454567
1.75843
1.80747
1.2146
1.00317
0.840897
0.681415
0.521545
0.361416
0.20132
0.0443878
1.75353
1.79581
1.22921
1.00562
0.840941
0.681324
0.521505
0.36139
0.201165
0.0429929
1.74913
1.78614
1.23974
1.00747
0.840936
0.681234
0.521467
0.361365
0.201002
0.0412291
1.74793
1.77866
1.24667
1.00864
0.840863
0.681144
0.521433
0.361344
0.200845
0.0390408
1.75204
1.7742
1.25045
1.00906
0.840699
0.681053
0.521402
0.361327
0.200712
0.0363425
1.75803
1.77366
1.25124
1.00867
0.840421
0.680954
0.521373
0.361315
0.200642
0.0326926
0
0
0.891857
1.02262
0.84717
0.683467
0.522183
0.361531
0.200393
0.0292458
0
0
0.890926
1.0158
0.84641
0.683326
0.522152
0.361527
0.200454
0.0327901
0
0
0.850029
1.01168
0.845618
0.683175
0.522116
0.361525
0.200575
0.0354181
0
0
0.870621
1.00353
0.844699
0.683008
0.522076
0.361525
0.20072
0.0375569
1.82996
2.05147
0.79159
0.992484
0.843743
0.682829
0.522032
0.361525
0.200871
0.0392862
1.8236
2.03776
0.840793
0.984839
0.842851
0.682647
0.521984
0.361524
0.201015
0.040657
1.81356
1.99247
0.909942
0.982891
0.842113
0.682467
0.521934
0.361521
0.20114
0.0417091
1.8009
1.95306
0.972651
0.983326
0.841547
0.682293
0.521882
0.361516
0.201239
0.0424727
1.78637
1.91943
1.02715
0.985044
0.841149
0.682129
0.521829
0.361507
0.201307
0.0429697
1.77156
1.89083
1.0736
0.987626
0.840896
0.681977
0.521777
0.361494
0.201339
0.0432143
1.75916
1.86633
1.11294
0.990727
0.840763
0.681836
0.521725
0.361478
0.201335
0.0432134
1.75015
1.84538
1.14601
0.994058
0.840719
0.681708
0.521674
0.361458
0.201293
0.0429671
1.74492
1.82752
1.17353
0.997382
0.840734
0.68159
0.521624
0.361435
0.201216
0.0424683
1.74364
1.81238
1.19609
1.00051
0.840777
0.68148
0.521577
0.36141
0.201108
0.0417031
1.74629
1.79972
1.21419
1.00327
0.840819
0.681377
0.521532
0.361384
0.200975
0.0406495
1.75221
1.78931
1.22828
1.00556
0.840836
0.681278
0.521489
0.361358
0.200824
0.0392772
1.75905
1.78117
1.23871
1.00728
0.840805
0.681183
0.52145
0.361333
0.200666
0.0375466
1.76557
1.77551
1.24578
1.00837
0.840712
0.68109
0.521415
0.361312
0.200515
0.0354067
1.7714
1.77249
1.24972
1.00875
0.840541
0.680997
0.521384
0.361296
0.200389
0.0327777
1.77588
1.77263
1.25065
1.00837
0.840266
0.680899
0.521356
0.361285
0.200325
0.0292325
0
0
0.886368
1.02701
0.847544
0.683551
0.522201
0.361519
0.200171
0.0244179
0
0
0.886618
1.01896
0.846902
0.68343
0.522174
0.361516
0.200218
0.027265
0
0
0.847465
1.01439
0.846065
0.683277
0.522138
0.361513
0.200323
0.0297802
0
0
0.841121
1.00381
0.845122
0.683103
0.522096
0.361512
0.200458
0.0318659
1.84707
2.00425
0.857016
0.994841
0.84413
0.682915
0.52205
0.361511
0.200603
0.0335625
1.84159
1.98494
0.898551
0.989011
0.843197
0.682719
0.521999
0.361509
0.200743
0.0349129
1.83124
1.95882
0.947167
0.986111
0.842391
0.682524
0.521945
0.361505
0.200866
0.0359521
1.81699
1.93102
0.996296
0.985415
0.841747
0.682334
0.52189
0.361499
0.200964
0.0367077
1.80189
1.90414
1.04176
0.986324
0.841269
0.682154
0.521834
0.361489
0.20103
0.0372001
1.78813
1.87944
1.08246
0.98833
0.840943
0.681985
0.521777
0.361475
0.201062
0.0374425
1.77663
1.85744
1.11811
0.991018
0.840745
0.681829
0.521721
0.361458
0.201057
0.0374415
1.76803
1.83824
1.14879
0.994054
0.840645
0.681685
0.521666
0.361437
0.201016
0.0371972
1.76295
1.82178
1.17475
0.997166
0.840611
0.681553
0.521613
0.361413
0.200939
0.0367031
1.76154
1.80792
1.19632
1.00014
0.840613
0.681431
0.521562
0.361388
0.200833
0.0359457
1.76354
1.79656
1.21383
1.0028
0.840621
0.681317
0.521514
0.361361
0.200701
0.0349048
1.76865
1.7876
1.22761
1.00501
0.84061
0.681209
0.52147
0.361335
0.200553
0.0335529
1.77627
1.781
1.23794
1.00668
0.840559
0.681107
0.521429
0.361311
0.200401
0.0318549
1.78452
1.77669
1.24506
1.00774
0.84045
0.681009
0.521392
0.36129
0.20026
0.0297681
1.79067
1.77468
1.24919
1.00813
0.840275
0.680915
0.521361
0.361274
0.200151
0.0272518
1.79397
1.77466
1.25032
1.00787
0.840045
0.680831
0.521336
0.361264
0.2001
0.024404

VECTORS velocity float
0 0 0
0 0 0
0.836492 -0.0337607 0.000474856
0.706479 -0.00379706 0.000432813
0.750187 -0.000818317 5.63829e-05
0.759813 -0.000178211 1.13871e-05
0.761931 -4.04817e-05 2.38824e-06
0.762432 -1.01748e-05 -1.2479e-06
0.762801 -1.39339e-05 -2.43367e-05
0.772381 -0.000656272 -0.000551335
0 0 0
0 0 0
-0.172417 -0.10065 0.000576686
0.713717 -0.0134346 0.000340521
0.779217 -0.00254758 6.23871e-05
0.789881 -0.000549445 1.2829e-05
0.792171 -0.000124753 2.69772e-06
0.792712 -3.13126e-05 -1.23402e-06
0.793105 -4.27609e-05 -2.58176e-05
0.795766 -0.00124252 -0.000616501
0 0 0
0 0 0
0.852562 -0.169834 0.00175816
0.738471 -0.0228909 0.000285245
0.781267 -0.00429272 5.54251e-05
0.791107 -0.000926137 1.22405e-05
0.793289 -0.000210434 2.6148e-06
0.793804 -5.26091e-05 -1.29077e-06
0.794142 -6.69797e-05 -2.68263e-05
0.796525 -0.00107339 -0.000629435
0 0 0
0 0 0
-0.157332 -0.240633 0.000885997
0.730579 -0.0310005 0.000122944
0.782327 -0.00589382 4.91396e-05
0.791376 -0.00127798 1.12124e-05
0.793375 -0.000290915 2.41349e-06
0.793849 -7.22613e-05 -1.37294e-06
0.794132 -8.0845e-05 -2.74943e-05
0.796599 -0.000884574 -0.000636189
0.457217 -0.0195042 -0.042087
0.931561 0.00325049 -0.0203415
0.864155 -0.266806 0.0101165
0.752848 -0.0382849 0.00058256
0.784047 -0.00730661 5.04237e-05
0.791682 -0.00159397 9.95286e-06
0.793442 -0.000363763 2.1313e-06
0.793862 -8.96363e-05 -1.46801e-06
0.794097 -8.61698e-05 -2.79031e-05
0.796644 -0.000714738 -0.000640075
0.521102 -0.0523966 -0.0483873
0.999548 0.00453172 -0.016587
0.928859 -0.245828 0.00985187
0.768307 -0.0427188 0.000733685
0.785961 -0.00846526 4.75999e-05
0.792045 -0.0018654 8.38703e-06
0.793521 -0.000427079 1.78033e-06
0.793877 -0.000104296 -1.57391e-06
0.79407 -8.47975e-05 -2.81755e-05
0.79668 -0.000562455 -0.000642423
0.565115 -0.072212 -0.0550809
0.995252 0.000106864 -0.0131809
0.930454 -0.220719 0.00564507
0.779833 -0.0450828 0.000514059
0.787997 -0.00934923 3.70175e-05
0.792456 -0.00208549 6.54393e-06
0.793612 -0.000479261 1.37768e-06
0.793895 -0.000115915 -1.68671e-06
0.794051 -7.82011e-05 -2.83616e-05
0.796709 -0.000424404 -0.000643861
0.602542 -0.0788281 -0.0616833
0.989277 -0.00432462 -0.0113342
0.928555 -0.195905 0.00320823
0.789676 -0.045795 0.000328016
0.7901 -0.00994833 2.58598e-05
0.7929 -0.00224922 4.58899e-06
0.793711 -0.000519031 9.39818e-07
0.793916 -0.000124271 -1.80328e-06
0.794039 -6.75972e-05 -2.84902e-05
0.79673 -0.000297218 -0.000644737
0.633024 -0.0739584 -0.0675872
0.984281 -0.00748318 -0.010416
0.926675 -0.172521 0.00175734
0.798281 -0.0451961 0.000195715
0.792204 -0.0102643 1.50771e-05
0.793365 -0.00235343 2.59914e-06
0.793817 -0.000545461 4.81392e-07
0.793938 -0.000129241 -1.92074e-06
0.794033 -5.40227e-05 -2.85775e-05
0.796745 -0.000177632 -0.00064524
0.656247 -0.0597575 -0.0723834
0.97993 -0.00898947 -0.00999044
0.924953 -0.150851 0.000837523
0.805756 -0.0435533 0.000101406
0.794251 -0.0103077 5.33876e-06
0.793839 -0.00239672 6.41735e-07
0.793926 -0.000557988 1.58641e-08