# vtk DataFile Version 2.0
TestTestTest
ASCII

DATASET STRUCTURED_GRID
DIMENSIONS 11 21 11
POINTS 2541 float
0 0 0
0.5 0 0
1 0 0
1.5 0 0
2 0 0
2.5 0 0
3 0 0
3.5 0 0
4 0 0
4.5 0 0
5 0 0
0 0.05 0
0.5 0.05 0
1 0.05 0
1.5 0.05 0
2 0.05 0
2.5 0.05 0
3 0.05 0
3.5 0.05 0
4 0.05 0
4.5 0.05 0
5 0.05 0
0 0.1 0
0.5 0.1 0
1 0.1 0
1.5 0.1 0
2 0.1 0
2.5 0.1 0
3 0.1 0
3.5 0.1 0
4 0.1 0
4.5 0.1 0
5 0.1 0
0 0.15 0
0.5 0.15 0
1 0.15 0
1.5 0.15 0
2 0.15 0
2.5 0.15 0
3 0.15 0
3.5 0.15 0
4 0.15 0
4.5 0.15 0
5 0.15 0
0 0.2 0
0.5 0.2 0
1 0.2 0
1.5 0.2 0
2 0.2 0
2.5 0.2 0
3 0.2 0
3.5 0.2 0
4 0.2 0
4.5 0.2 0
5 0.2 0
0 0.25 0
0.5 0.25 0
1 0.25 0
1.5 0.25 0
2 0.25 0
2.5 0.25 0
3 0.25 0
3.5 0.25 0
4 0.25 0
4.5 0.25 0
5 0.25 0
0 0.3 0
0.5 0.3 0
1 0.3 0
1.5 0.3 0
2 0.3 0
2.5 0.3 0
3 0.3 0
3.5 0.3 0
4 0.3 0
4.5 0.3 0
5 0.3 0
0 0.35 0
0.5 0.35 0
1 0.35 0
1.5 0.35 0
2 0.35 0
2.5 0.35 0
3 0.35 0
3.5 0.35 0
4 0.35 0
4.5 0.35 0
5 0.35 0
0 0.4 0
0.5 0.4 0
1 0.4 0
1.5 0.4 0
2 0.4 0
2.5 0.4 0
3 0.4 0
3.5 0.4 0
4 0.4 0
4.5 0.4 0
5 0.4 0
0 0.45 0
0.5 0.45 0
1 0.45 0
1.5 0.45 0
2 0.45 0
2.5 0.45 0
3 0.45 0
3.5 0.45 0
4 0.45 0
4.5 0.45 0
5 0.45 0
0 0.5 0
0.5 0.5 0
1 0.5 0
1.5 0.5 0
2 0.5 0
2.5 0.5 0
3 0.5 0
3.5 0.5 0
4 0.5 0
4.5 0.5 0
5 0.5 0
0 0.55 0
0.5 0.55 0
1 0.55 0
1.5 0.55 0
2 0.55 0
2.5 0.55 0
3 0.55 0
3.5 0.55 0
4 0.55 0
4.5 0.55 0
5 0.55 0
0 0.6 0
0.5 0.6 0
1 0.6 0
1.5 0.6 0
2 0.6 0
2.5 0.6 0
3 0.6 0
3.5 0.6 0
4 0.6 0
4.5 0.6 0
5 0.6 0
0 0.65 0
0.5 0.65 0
1 0.65 0
1.5 0.65 0
2 0.65 0
2.5 0.65 0
3 0.65 0
3.5 0.65 0
4 0.65 0
4.5 0.65 0
5 0.65 0
0 0.7 0
0.5 0.7 0
1 0.7 0
1.5 0.7 0
2 0.7 0
2.5 0.7 0
3 0.7 0
3.5 0.7 0
4 0.7 0
4.5 0.7 0
5 0.7 0
0 0.75 0
0.5 0.75 0
1 0.75 0
1.5 0.75 0
2 0.75 0
2.5 0.75 0
3 0.75 0
3.5 0.75 0
4 0.75 0
4.5 0.75 0
5 0.75 0
0 0.8 0
0.5 0.8 0
1 0.8 0
1.5 0.8 0
2 0.8 0
2.5 0.8 0
3 0.8 0
3.5 0.8 0
4 0.8 0
4.5 0.8 0
5 0.8 0
0 0.85 0
0.5 0.85 0
1 0.85 0
1.5 0.85 0
2 0.85 0
2.5 0.85 0
3 0.85 0
3.5 0.85 0
4 0.85 0
4.5 0.85 0
5 0.85 0
0 0.9 0
0.5 0.9 0
1 0.9 0
1.5 0.9 0
2 0.9 0
2.5 0.9 0
3 0.9 0
3.5 0.9 0
4 0.9 0
4.5 0.9 0
5 0.9 0
0 0.95 0
0.5 0.95 0
1 0.95 0
1.5 0.95 0
2 0.95 0
2.5 0.95 0
3 0.95 0
3.5 0.95 0
4 0.95 0
4.5 0.95 0
5 0.95 0
0 1 0
0.5 1 0
1 1 0
1.5 1 0
2 1 0
2.5 1 0
3 1 0
3.5 1 0
4 1 0
4.5 1 0
5 1 0
0 0 0.1
0.5 0 0.1
1 0 0.1
1.5 0 0.1
2 0 0.1
2.5 0 0.1
3 0 0.1
3.5 0 0.1
4 0 0.1
4.5 0 0.1
5 0 0.1
0 0.05 0.1
0.5 0.05 0.1
1 0.05 0.1
1.5 0.05 0.1
2 0.05 0.1
2.5 0.05 0.1
3 0.05 0.1
3.5 0.05 0.1
4 0.05 0.1
4.5 0.05 0.1
5 0.05 0.1
0 0.1 0.1
0.5 0.1 0.1
1 0.1 0.1
1.5 0.1 0.1
2 0.1 0.1
2.5 0.1 0.1
3 0.1 0.1
3.5 0.1 0.1
4 0.1 0.1
4.5 0.1 0.1
5 0.1 0.1
0 0.15 0.1
0.5 0.15 0.1
1 0.15 0.1
1.5 0.15 0.1
2 0.15 0.1
2.5 0.15 0.1
3 0.15 0.1
3.5 0.15 0.1
4 0.15 0.1
4.5 0.15 0.1
5 0.15 0.1
0 0.2 0.1
0.5 0.2 0.1
1 0.2 0.1
1.5 0.2 0.1
2 0.2 0.1
2.5 0.2 0.1
3 0.2 0.1
3.5 0.2 0.1
4 0.2 0.1
4.5 0.2 0.1
5 0.2 0.1
0 0.25 0.1
0.5 0.25 0.1
1 0.25 0.1
1.5 0.25 0.1
2 0.25 0.1
2.5 0.25 0.1
3 0.25 0.1
3.5 0.25 0.1
4 0.25 0.1
4.5 0.25 0.1
5 0.25 0.1
0 0.3 0.1
0.5 0.3 0.1
1 0.3 0.1
1.5 0.3 0.1
2 0.3 0.1
2.5 0.3 0.1
3 0.3 0.1
3.5 0.3 0.1
4 0.3 0.1
4.5 0.3 0.1
5 0.3 0.1
0 0.35 0.1
0.5 0.35 0.1
1 0.35 0.1
1.5 0.35 0.1
2 0.35 0.1
2.5 0.35 0.1
3 0.35 0.1
3.5 0.35 0.1
4 0.35 0.1
4.5 0.35 0.1
5 0.35 0.1
0 0.4 0.1
0.5 0.4 0.1
1 0.4 0.1
1.5 0.4 0.1
2 0.4 0.1
2.5 0.4 0.1
3 0.4 0.1
3.5 0.4 0.1
4 0.4 0.1
4.5 0.4 0.1
5 0.4 0.1
0 0.45 0.1
0.5 0.45 0.1
1 0.45 0.1
1.5 0.45 0.1
2 0.45 0.1
2.5 0.45 0.1
3 0.45 0.1
3.5 0.45 0.1
4 0.45 0.1
4.5 0.45 0.1
5 0.45 0.1
0 0.5 0.1
0.5 0.5 0.1
1 0.5 0.1
1.5 0.5 0.1
2 0.5 0.1
2.5 0.5 0.1
3 0.5 0.1
3.5 0.5 0.1
4 0.5 0.1
4.5 0.5 0.1
5 0.5 0.1
0 0.55 0.1
0.5 0.55 0.1
1 0.55 0.1
1.5 0.55 0.1
2 0.55 0.1
2.5 0.55 0.1
3 0.55 0.1
3.5 0.55 0.1
4 0.55 0.1
4.5 0.55 0.1
5 0.55 0.1
0 0.6 0.1
0.5 0.6 0.1
1 0.6 0.1
1.5 0.6 0.1
2 0.6 0.1
2.5 0.6 0.1
3 0.6 0.1
3.5 0.6 0.1
4 0.6 0.1
4.5 0.6 0.1
5 0.6 0.1
0 0.65 0.1
0.5 0.65 0.1
1 0.65 0.1
1.5 0.65 0.1
2 0.65 0.1
2.5 0.65 0.1
3 0.65 0.1
3.5 0.65 0.1
4 0.65 0.1
4.5 0.65 0.1
5 0.65 0.1
0 0.7 0.1
0.5 0.7 0.1
1 0.7 0.1
1.5 0.7 0.1
2 0.7 0.1
2.5 0.7 0.1
3 0.7 0.1
3.5 0.7 0.1
4 0.7 0.1
4.5 0.7 0.1
5 0.7 0.1
0 0.75 0.1
0.5 0.75 0.1
1 0.75 0.1
1.5 0.75 0.1
2 0.75 0.1
2.5 0.75 0.1
3 0.75 0.1
3.5 0.75 0.1
4 0.75 0.1
4.5 0.75 0.1
5 0.75 0.1
0 0.8 0.1
0.5 0.8 0.1
1 0.8 0.1
1.5 0.8 0.1
2 0.8 0.1
2.5 0.8 0.1
3 0.8 0.1
3.5 0.8 0.1
4 0.8 0.1
4.5 0.8 0.1
5 0.8 0.1
0 0.85 0.1
0.5 0.85 0.1
1 0.85 0.1
1.5 0.85 0.1
2 0.85 0.1
2.5 0.85 0.1
3 0.85 0.1
3.5 0.85 0.1
4 0.85 0.1
4.5 0.85 0.1
5 0.85 0.1
0 0.9 0.1
0.5 0.9 0.1
1 0.9 0.1
1.5 0.9 0.1
2 0.9 0.1
2.5 0.9 0.1
3 0.9 0.1
3.5 0.9 0.1
4 0.9 0.1
4.5 0.9 0.1
5 0.9 0.1
0 0.95 0.1
0.5 0.95 0.1
1 0.95 0.1
1.5 0.95 0.1
2 0.95 0.1
2.5 0.95 0.1
3 0.95 0.1
3.5 0.95 0.1
4 0.95 0.1
4.5 0.95 0.1
5 0.95 0.1
0 1 0.1
0.5 1 0.1
1 1 0.1
1.5 1 0.1
2 1 0.1
2.5 1 0.1
3 1 0.1
3.5 1 0.1
4 1 0.1
4.5 1 0.1
5 1 0.1
0 0 0.2
0.5 0 0.2
1 0 0.2
1.5 0 0.2
2 0 0.2
2.5 0 0.2
3 0 0.2
3.5 0 0.2
4 0 0.2
4.5 0 0.2
5 0 0.2
0 0.05 0.2
0.5 0.05 0.2
1 0.05 0.2
1.5 0.05 0.2
2 0.05 0.2
2.5 0.05 0.2
3 0.05 0.2
3.5 0.05 0.2
4 0.05 0.2
4.5 0.05 0.2
5 0.05 0.2
0 0.1 0.2
0.5 0.1 0.2
1 0.1 0.2
1.5 0.1 0.2
2 0.1 0.2
2.5 0.1 0.2
3 0.1 0.2
3.5 0.1 0.2
4 0.1 0.2
4.5 0.1 0.2
5 0.1 0.2
0 0.15 0.2
0.5 0.15 0.2
1 0.15 0.2
1.5 0.15 0.2
2 0.15 0.2
2.5 0.15 0.2
3 0.15 0.2
3.5 0.15 0.2
4 0.15 0.2
4.5 0.15 0.2
5 0.15 0.2
0 0.2 0.2
0.5 0.2 0.2
1 0.2 0.2
1.5 0.2 0.2
2 0.2 0.2
2.5 0.2 0.2
3 0.2 0.2
3.5 0.2 0.2
4 0.2 0.2
4.5 0.2 0.2
5 0.2 0.2
0 0.25 0.2
0.5 0.25 0.2
1 0.25 0.2
1.5 0.25 0.2
2 0.25 0.2
2.5 0.25 0.2
3 0.25 0.2
3.5 0.25 0.2
4 0.25 0.2
4.5 0.25 0.2
5 0.25 0.2
0 0.3 0.2
0.5 0.3 0.2
1 0.3 0.2
1.5 0.3 0.2
2 0.3 0.2
2.5 0.3 0.2
3 0.3 0.2
3.5 0.3 0.2
4 0.3 0.2
4.5 0.3 0.2
5 0.3 0.2
0 0.35 0.2
0.5 0.35 0.2
1 0.35 0.2
1.5 0.35 0.2
2 0.35 0.2
2.5 0.35 0.2
3 0.35 0.2
3.5 0.35 0.2
4 0.35 0.2
4.5 0.35 0.2
5 0.35 0.2
0 0.4 0.2
0.5 0.4 0.2
1 0.4 0.2
1.5 0.4 0.2
2 0.4 0.2
2.5 0.4 0.2
3 0.4 0.2
3.5 0.4 0.2
4 0.4 0.2
4.5 0.4 0.2
5 0.4 0.2
0 0.45 0.2
0.5 0.45 0.2
1 0.45 0.2
1.5 0.45 0.2
2 0.45 0.2
2.5 0.45 0.2
3 0.45 0.2
3.5 0.45 0.2
4 0.45 0.2
4.5 0.45 0.2
5 0.45 0.2
0 0.5 0.2
0.5 0.5 0.2
1 0.5 0.2
1.5 0.5 0.2
2 0.5 0.2
2.5 0.5 0.2
3 0.5 0.2
3.5 0.5 0.2
4 0.5 0.2
4.5 0.5 0.2
5 0.5 0.2
0 0.55 0.2
0.5 0.55 0.2
1 0.55 0.2
1.5 0.55 0.2
2 0.55 0.2
2.5 0.55 0.2
3 0.55 0.2
3.5 0.55 0.2
4 0.55 0.2
4.5 0.55 0.2
5 0.55 0.2
0 0.6 0.2
0.5 0.6 0.2
1 0.6 0.2
1.5 0.6 0.2
2 0.6 0.2
2.5 0.6 0.2
3 0.6 0.2
3.5 0.6 0.2
4 0.6 0.2
4.5 0.6 0.2
5 0.6 0.2
0 0.65 0.2
0.5 0.65 0.2
1 0.65 0.2
1.5 0.65 0.2
2 0.65 0.2
2.5 0.65 0.2
3 0.65 0.2
3.5 0.65 0.2
4 0.65 0.2
4.5 0.65 0.2
5 0.65 0.2
0 0.7 0.2
0.5 0.7 0.2
1 0.7 0.2
1.5 0.7 0.2
2 0.7 0.2
2.5 0.7 0.2
3 0.7 0.2
3.5 0.7 0.2
4 0.7 0.2
4.5 0.7 0.2
5 0.7 0.2
0 0.75 0.2
0.5 0.75 0.2
1 0.75 0.2
1.5 0.75 0.2
2 0.75 0.2
2.5 0.75 0.2
3 0.75 0.2
3.5 0.75 0.2
4 0.75 0.2
4.5 0.75 0.2
5 0.75 0.2
0 0.8 0.2
0.5 0.8 0.2
1 0.8 0.2
1.5 0.8 0.2
2 0.8 0.2
2.5 0.8 0.2
3 0.8 0.2
3.5 0.8 0.2
4 0.8 0.2
4.5 0.8 0.2
5 0.8 0.2
0 0.85 0.2
0.5 0.85 0.2
1 0.85 0.2
1.5 0.85 0.2
2 0.85 0.2
2.5 0.85 0.2
3 0.85 0.2
3.5 0.85 0.2
4 0.85 0.2
4.5 0.85 0.2
5 0.85 0.2
0 0.9 0.2
0.5 0.9 0.2
1 0.9 0.2
1.5 0.9 0.2
2 0.9 0.2
2.5 0.9 0.2
3 0.9 0.2
3.5 0.9 0.2
4 0.9 0.2
4.5 0.9 0.2
5 0.9 0.2
0 0.95 0.2
0.5 0.95 0.2
1 0.95 0.2
1.5 0.95 0.2
2 0.95 0.2
2.5 0.95 0.2
3 0.95 0.2
3.5 0.95 0.2
4 0.95 0.2
4.5 0.95 0.2
5 0.95 0.2
0 1 0.2
0.5 1 0.2
1 1 0.2
1.5 1 0.2
2 1 0.2
2.5 1 0.2
3 1 0.2
3.5 1 0.2
4 1 0.2
4.5 1 0.2
5 1 0.2
0 0 0.3
0.5 0 0.3
1 0 0.3
1.5 0 0.3
2 0 0.3
2.5 0 0.3
3 0 0.3
3.5 0 0.3
4 0 0.3
4.5 0 0.3
5 0 0.3
0 0.05 0.3
0.5 0.05 0.3
1 0.05 0.3
1.5 0.05 0.3
2 0.05 0.3
2.5 0.05 0.3
3 0.05 0.3
3.5 0.05 0.3
4 0.05 0.3
4.5 0.05 0.3
5 0.05 0.3
0 0.1 0.3
0.5 0.1 0.3
1 0.1 0.3
1.5 0.1 0.3
2 0.1 0.3
2.5 0.1 0.3
3 0.1 0.3
3.5 0.1 0.3
4 0.1 0.3
4.5 0.1 0.3
5 0.1 0.3
0 0.15 0.3
0.5 0.15 0.3
1 0.15 0.3
1.5 0.15 0.3
2 0.15 0.3
2.5 0.15 0.3
3 0.15 0.3
3.5 0.15 0.3
4 0.15 0.3
4.5 0.15 0.3
5 0.15 0.3
0 0.2 0.3
0.5 0.2 0.3
1 0.2 0.3
1.5 0.2 0.3
2 0.2 0.3
2.5 0.2 0.3
3 0.2 0.3
3.5 0.2 0.3
4 0.2 0.3
4.5 0.2 0.3
5 0.2 0.3
0 0.25 0.3
0.5 0.25 0.3
1 0.25 0.3
1.5 0.25 0.3
2 0.25 0.3
2.5 0.25 0.3
3 0.25 0.3
3.5 0.25 0.3
4 0.25 0.3
4.5 0.25 0.3
5 0.25 0.3
0 0.3 0.3
0.5 0.3 0.3
1 0.3 0.3
1.5 0.3 0.3
2 0.3 0.3
2.5 0.3 0.3
3 0.3 0.3
3.5 0.3 0.3
4 0.3 0.3
4.5 0.3 0.3
5 0.3 0.3
0 0.35 0.3
0.5 0.35 0.3
1 0.35 0.3
1.5 0.35 0.3
2 0.35 0.3
2.5 0.35 0.3
3 0.35 0.3
3.5 0.35 0.3
4 0.35 0.3
4.5 0.35 0.3
5 0.35 0.3
0 0.4 0.3
0.5 0.4 0.3
1 0.4 0.3
1.5 0.4 0.3
2 0.4 0.3
2.5 0.4 0.3
3 0.4 0.3
3.5 0.4 0.3
4 0.4 0.3
4.5 0.4 0.3
5 0.4 0.3
0 0.45 0.3
0.5 0.45 0.3
1 0.45 0.3
1.5 0.45 0.3
2 0.45 0.3
2.5 0.45 0.3
3 0.45 0.3
3.5 0.45 0.3
4 0.45 0.3
4.5 0.45 0.3
5 0.45 0.3
0 0.5 0.3
0.5 0.5 0.3
1 0.5 0.3
1.5 0.5 0.3
2 0.5 0.3
2.5 0.5 0.3
3 0.5 0.3
3.5 0.5 0.3
4 0.5 0.3
4.5 0.5 0.3
5 0.5 0.3
0 0.55 0.3
0.5 0.55 0.3
1 0.55 0.3
1.5 0.55 0.3
2 0.55 0.3
2.5 0.55 0.3
3 0.55 0.3
3.5 0.55 0.3
4 0.55 0.3
4.5 0.55 0.3
5 0.55 0.3
0 0.6 0.3
0.5 0.6 0.3
1 0.6 0.3
1.5 0.6 0.3
2 0.6 0.3
2.5 0.6 0.3
3 0.6 0.3
3.5 0.6 0.3
4 0.6 0.3
4.5 0.6 0.3
5 0.6 0.3
0 0.65 0.3
0.5 0.65 0.3
1 0.65 0.3
1.5 0.65 0.3
2 0.65 0.3
2.5 0.65 0.3
3 0.65 0.3
3.5 0.65 0.3
4 0.65 0.3
4.5 0.65 0.3
5 0.65 0.3
0 0.7 0.3
0.5 0.7 0.3
1 0.7 0.3
1.5 0.7 0.3
2 0.7 0.3
2.5 0.7 0.3
3 0.7 0.3
3.5 0.7 0.3
4 0.7 0.3
4.5 0.7 0.3
5 0.7 0.3
0 0.75 0.3
0.5 0.75 0.3
1 0.75 0.3
1.5 0.75 0.3
2 0.75 0.3
2.5 0.75 0.3
3 0.75 0.3
3.5 0.75 0.3
4 0.75 0.3
4.5 0.75 0.3
5 0.75 0.3
0 0.8 0.3
0.5 0.8 0.3
1 0.8 0.3
1.5 0.8 0.3
2 0.8 0.3
2.5 0.8 0.3
3 0.8 0.3
3.5 0.8 0.3
4 0.8 0.3
4.5 0.8 0.3
5 0.8 0.3
0 0.85 0.3
0.5 0.85 0.3
1 0.85 0.3
1.5 0.85 0.3
2 0.85 0.3
2.5 0.85 0.3
3 0.85 0.3
3.5 0.85 0.3
4 0.85 0.3
4.5 0.85 0.3
5 0.85 0.3
0 0.9 0.3
0.5 0.9 0.3
1 0.9 0.3
1.5 0.9 0.3
2 0.9 0.3
2.5 0.9 0.3
3 0.9 0.3
3.5 0.9 0.3
4 0.9 0.3
4.5 0.9 0.3
5 0.9 0.3
0 0.95 0.3
0.5 0.95 0.3
1 0.95 0.3
1.5 0.95 0.3
2 0.95 0.3
2.5 0.95 0.3
3 0.95 0.3
3.5 0.95 0.3
4 0.95 0.3
4.5 0.95 0.3
5 0.95 0.3
0 1 0.3
0.5 1 0.3
1 1 0.3
1.5 1 0.3
2 1 0.3
2.5 1 0.3
3 1 0.3
3.5 1 0.3
4 1 0.3
4.5 1 0.3
5 1 0.3
0 0 0.4
[...]
CELL_DATA 2000
SCALARS pressure float 1
LOOKUP_TABLE default
0
0
0.904941
0.996207
0.816699
0.656817
0.501439
0.347228
0.192544
0.0241887
0
0
0.902987
0.988599
0.816048
0.656685
0.501408
0.347223
0.192566
0.0266797
0
0
0.866136
0.984096
0.815107
0.656496
0.501364
0.347217
0.192649
0.0290045
0
0
0.854112
0.973992
0.813977
0.656263
0.501308
0.347212
0.192766
0.0309478
1.54063
1.67417
0.861945
0.964746
0.812692
0.655996
0.501242
0.347205
0.192896
0.0325259
1.53701
1.6667
0.888625
0.95745
0.811365
0.655705
0.501169
0.347196
0.193022
0.03378
1.52919
1.65474
0.921059
0.952395
0.810081
0.655398
0.501089
0.347185
0.193133
0.0347441
1.51797
1.64054
0.95688
0.949284
0.808899
0.655084
0.501005
0.347171
0.193221
0.0354445
1.50613
1.6259
0.990803
0.9477
0.807848
0.654771
0.500918
0.347153
0.19328
0.0359005
1.49564
1.61194
1.02145
0.947222
0.806934
0.654465
0.500829
0.347132
0.193307
0.0361248
1.48723
1.59919
1.04847
0.947507
0.806148
0.65417
0.500741
0.347107
0.1933
0.0361236
1.48135
1.58789
1.07181
0.948278
0.805475
0.65389
0.500654
0.347079
0.19326
0.0358969
1.47848
1.57813
1.0916
0.949303
0.804898
0.653626
0.50057
0.347049
0.193188
0.0354385
1.47869
1.5699
1.10805
0.950398
0.804397
0.653382
0.500491
0.347018
0.193088
0.0347358
1.48182
1.56318
1.12136
0.951415
0.803954
0.653157
0.500417
0.346987
0.192966
0.0337696
1.48765
1.55791
1.13178
0.952237
0.803553
0.652952
0.50035
0.346957
0.19283
0.0325136
1.49565
1.55408
1.1395
0.952774
0.803178
0.65277
0.50029
0.34693
0.192692
0.0309338
1.50402
1.55162
1.14472
0.952964
0.802819
0.65261
0.50024
0.346907
0.192567
0.028989
1.51003
1.5506
1.14765
0.952794
0.80248
0.652476
0.500199
0.34689
0.192478
0.0266631
1.51283
1.55078
1.14824
0.952305
0.802188
0.652378
0.500171
0.34688
0.192453
0.0241713
0
0
0.914297
0.992691
0.816521
0.65676
0.501426
0.347239
0.192738
0.0286056
0
0
0.910622
0.986043
0.815643
0.656595
0.501389
0.347232
0.19276
0.0321054
0
0
0.875376
0.981813
0.814723
0.656402
0.501343
0.347227
0.192875
0.0345822
0
0
0.885444
0.974417
0.813578
0.656173
0.501289
0.347222
0.19301
0.0365647
1.52464
1.68282
0.827335
0.964037
0.812316
0.655915
0.501225
0.347217
0.193149
0.0381697
1.52032
1.69494
0.847904
0.954512
0.811015
0.655635
0.501155
0.34721
0.193281
0.039442
1.51313
1.67592
0.894144
0.949573
0.80979
0.655342
0.501078
0.3472
0.193396
0.0404183
1.50383
1.65456
0.938225
0.947335
0.808687
0.655044
0.500998
0.347187
0.193486
0.0411266
1.49325
1.63532
0.978657
0.946451
0.807717
0.654747
0.500914
0.34717
0.193546
0.0415873
1.4828
1.61834
1.01385
0.94649
0.806876
0.654457
0.500829
0.34715
0.193574
0.0418139
1.47445
1.60343
1.04388
0.947157
0.806154
0.654177
0.500745
0.347126
0.193568
0.0418127
1.46868
1.59059
1.06924
0.948206
0.805537
0.653912
0.500662
0.347099
0.193527
0.0415839
1.46566
1.57975
1.09039
0.949435
0.805008
0.653662
0.500581
0.34707
0.193454
0.0411208
1.46547
1.57078
1.10773
0.950679
0.804547
0.653429
0.500505
0.347039
0.193352
0.0404104
1.46829
1.5635
1.12161
0.951803
0.804137
0.653215
0.500434
0.347007
0.193227
0.0394321
1.47388
1.5576
1.13232
0.952702
0.803762
0.653019
0.500369
0.346977
0.193085
0.0381579
1.48054
1.55294
1.14014
0.953295
0.803408
0.652843
0.500311
0.34695
0.192937
0.0365513
1.48704
1.54963
1.14531
0.953525
0.803066
0.652688
0.500261
0.346926
0.192795
0.0345674
1.49267
1.54803
1.14805
0.953334
0.802723
0.652552
0.50022
0.346909
0.192674
0.0320894
1.49685
1.54902
1.14839
0.952655
0.802356
0.652432
0.500187
0.346899
0.192648
0.0285887
0
0
0.924845
0.992143
0.816484
0.656716
0.501414
0.347261
0.193039
0.0319097
0
0
0.92026
0.986425
0.815595
0.656545
0.501376
0.347254
0.19307
0.0355726
0
0
0.891309
0.983297
0.814712
0.656353
0.50133
0.34725
0.193198
0.0381438
0
0
0.903035
0.9775
0.813638
0.656129
0.501276
0.347247
0.193344
0.0401871
1.50859
1.67933
0.816723
0.967461
0.812418
0.655877
0.501215
0.347243
0.193492
0.0418315
1.50374
1.71562
0.803805
0.955788
0.811095
0.655603
0.501146
0.347237
0.19363
0.0431302
1.49903
1.70977
0.852037
0.947829
0.809785
0.655317
0.501072
0.347228
0.193749
0.0441239
1.49742
1.68287
0.911859
0.944654
0.808614
0.655025
0.500994
0.347216
0.193842
0.0448436
1.49739
1.6552
0.961487
0.944167
0.807624
0.654736
0.500913
0.3472
0.193905
0.0453112
1.49717
1.63113
1.00262
0.944765
0.806799
0.654454
0.500831
0.347181
0.193934
0.0455409
1.49583
1.61112
1.03687
0.945915
0.806106
0.654183
0.500749
0.347158
0.193928
0.0455398
1.49319
1.59491
1.06523
0.947358
0.805522
0.653926
0.500668
0.347131
0.193886
0.0453078
1.49002
1.5821
1.08851
0.948901
0.805027
0.653685
0.500591
0.347102
0.193812
0.0448381
1.48632
1.57229
1.10735
0.950394
0.804598
0.653461
0.500517
0.347071
0.193707
0.0441163
1.48164
1.56497
1.12223
0.951715
0.804217
0.653254
0.500448
0.34704
0.193577
0.0431206
1.47653
1.55948
1.13346
0.952771
0.803869
0.653065
0.500384
0.347009
0.19343
0.0418201
1.4724
1.55491
1.14133
0.953491
0.80354
0.652894
0.500328
0.346981
0.193273
0.0401741
1.47153
1.55105
1.14627
0.9538
0.803216
0.652742
0.500279
0.346957
0.19312
0.0381294
1.47524
1.54882
1.1488
0.953628
0.802875
0.652606
0.500237
0.346938
0.192987
0.0355571
1.48047
1.54965
1.14902
0.952924
0.802496
0.652482
0.500203
0.346927
0.192951
0.0318933
0
0
0.9296
0.992847
0.816536
0.656693
0.501407
0.347283
0.1933
0.0339865
0
0
0.924955
0.987437
0.815658
0.656522
0.501369
0.347277
0.193334
0.0376834
0
0
0.895695
0.984889
0.814808
0.656332
0.501324
0.347274
0.193467
0.0402896
0
0
0.903081
0.979819
0.813783
0.656112
0.501271
0.347271
0.193618
0.0423623
1.50052
1.69103
0.812698
0.970128
0.812615
0.655866
0.50121
0.347268
0.193771
0.0440297
1.49616
1.73254
0.786032
0.958045
0.81132
0.655598
0.501142
0.347263
0.193913
0.0453457
1.49444
1.73308
0.818672
0.948574
0.809968
0.655315
0.50107
0.347255
0.194035
0.046352
1.50029
1.70644
0.882343
0.943778
0.808696
0.655024
0.500993
0.347243
0.194131
0.0470803
1.51285
1.67303
0.943019
0.942642
0.807615
0.654735
0.500914
0.347228
0.194195
0.0475533
1.52731
1.64193
0.991424
0.943207
0.806736
0.654454
0.500833
0.347209
0.194225
0.0477856
1.53796
1.61488
1.03011
0.9445
0.806019
0.654185
0.500753
0.347187
0.194219
0.0477845
1.54166
1.59318
1.06163
0.946141
0.80543
0.65393
0.500674
0.34716
0.194177
0.0475501
1.53844
1.57783
1.0873
0.947907
0.80494
0.653692
0.500597
0.347132
0.194101
0.0470749
1.52818
1.56842
1.1077
0.949649
0.804531
0.653472
0.500525
0.347101
0.193994
0.0463446
1.51104
1.56305
1.12324
0.951241
0.804185
0.653271
0.500457
0.347069
0.193861
0.0453363
1.49065
1.55936
1.13452
0.952546
0.803878
0.653088
0.500395
0.347039
0.19371
0.0440186
1.4737
1.55602
1.14228
0.953441
0.803583
0.652922
0.500339
0.34701
0.193549
0.0423496
1.4656
1.55273
1.1471
0.953851
0.803279
0.652773
0.50029
0.346985
0.19339
0.0402755
1.46671
1.55042
1.14949
0.953727
0.802947
0.652638
0.500249
0.346966
0.193251
0.0376682
1.47175
1.5512
1.14965
0.953037
0.802571
0.652514
0.500214
0.346954
0.193213
0.0339703
0
0
0.93048
0.993394
0.816588
0.656684
0.501404
0.347297
0.193446
0.0349799
0
0
0.925356
0.988088
0.815718
0.656514
0.501366
0.347291
0.193481
0.0386853
0
0
0.89483
0.985754
0.814883
0.656324
0.501321
0.347288
0.193616
0.041303
0
0
0.900457
0.980949
0.813882
0.656107
0.501268
0.347286
0.193769
0.0433871
1.49772
1.6998
0.808542
0.971433
0.812739
0.655864
0.501208
0.347283
0.193924
0.0450643
1.49382
1.74275
0.779901
0.959323
0.811466
0.6556
0.501141
0.347278
0.194068
0.0463883
1.49453
1.74467
0.807937
0.949634
0.810124
0.65532
0.501069
0.347271
0.194192
0.0474007
1.50572
1.71807
0.866617
0.944348
0.808834
0.655032
0.500993
0.34726
0.194289
0.0481334
1.52583
1.68245
0.928623
0.942495
0.807691
0.654742
0.500915
0.347245
0.194354
0.0486091
1.54906
1.64744
0.982471
0.942498
0.80673
0.654456
0.500835
0.347226
0.194384
0.0488428
1.56813
1.61615
1.02611
0.943517
0.805946
0.654183
0.500755
0.347204
0.194378
0.0488418
1.57661
1.59074
1.0606
0.945132
0.80532
0.653926
0.500676
0.347178
0.194336
0.0486059
1.57328
1.57372
1.08753
0.947068
0.804833
0.65369
0.5006
0.347149
0.194259
0.048128
1.55805
1.56486
1.10821
0.949067
0.804456
0.653474
0.500529
0.347118
0.194151
0.0473933
1.53223
1.56088
1.12376
0.950889
0.804145
0.653277
0.500461
0.347087
0.194017
0.046379
1.50284
1.55876
1.13505
0.952356
0.803865
0.653098
0.5004
0.347056
0.193864
0.0450533
1.47826
1.55654
1.14279
0.953358
0.803589
0.652934
0.500345
0.347027
0.1937
0.0433745
1.46491
1.55379
1.14756
0.953832
0.803298
0.652787
0.500296
0.347002
0.19354
0.0412891
1.46379
1.55157
1.1499
0.953742
0.802974
0.652653
0.500255
0.346983
0.193399
0.0386702
1.46851
1.55236
1.15002
0.953065
0.8026
0.652529
0.50022
0.34697
0.19336
0.0349639
0
0
0.93048
0.993394
0.816588
0.656684
0.501404
0.347297
0.193446
0.0349799
0
0
0.925356
0.988088
0.815718
0.656514
0.501366
0.347291
0.193481
0.0386853
0
0
0.89483
0.985754
0.814883
0.656324
0.501321
0.347288
0.193616
0.041303
0
0
0.900457
0.980949
0.813882
0.656107
0.501268
0.347286
0.193769
0.0433871
1.49772
1.6998
0.808542
0.971433
0.812739
0.655864
0.501208
0.347283
0.193924
0.0450643
1.49382
1.74275
0.779901
0.959323
0.811466
0.6556
0.501141
0.347278
0.194068
0.0463883
1.49453
1.74467
0.807937
0.949634
0.810124
0.65532
0.501069
0.347271
0.194192
0.0474007
1.50572
1.71807
0.866617
0.944348
0.808834
0.655032
0.500993
0.34726
0.194289
0.0481334
1.52583
1.68245
0.928623
0.942495
0.807691
0.654742
0.500915
0.347245
0.194354
0.0486091
1.54906
1.64744
0.982471
0.942498
0.80673
0.654456
0.500835
0.347226
0.194384
0.0488428
1.56813
1.61615
1.02611
0.943517
0.805946
0.654183
0.500755
0.347204
0.194378
0.0488418
1.57661
1.59074
1.0606
0.945132
0.80532
0.653926
0.500676
0.347178
0.194336
0.0486059
1.57328
1.57372
1.08753
0.947068
0.804833
0.65369
0.5006
0.347149
0.194259
0.048128
1.55805
1.56486
1.10821
0.949067
0.804456
0.653474
0.500529
0.347118
0.194151
0.0473933
1.53223
1.56088
1.12376
0.950889
0.804145
0.653277
0.500461
0.347087
0.194017
0.046379
1.50284
1.55876
1.13505
0.952356
0.803865
0.653098
0.5004
0.347056
0.193864
0.0450533
1.47826
1.55654
1.14279
0.953358
0.803589
0.652934
0.500345
0.347027
0.1937
0.0433745
1.46491
1.55379
1.14756
0.953832
0.803298
0.652787
0.500296
0.347002
0.19354
0.0412891
1.46379
1.55157
1.1499
0.953742
0.802974
0.652653
0.500255
0.346983
0.193399
0.0386702
1.46851
1.55236
1.15002
0.953065
0.8026
0.652529
0.50022
0.34697
0.19336
0.0349639
0
0
0.9296
0.992847
0.816536
0.656693
0.501407
0.347283
0.1933
0.0339865
0
0
0.924955
0.987437
0.815658
0.656522
0.501369
0.347277
0.193334
0.0376834
0
0
0.895695
0.984889
0.814808
0.656332
0.501324
0.347274
0.193467
0.0402896
0
0
0.903081
0.979819
0.813783
0.656112
0.501271
0.347271
0.193618
0.0423623
1.50052
1.69103
0.812698
0.970128
0.812615
0.655866
0.50121
0.347268
0.193771
0.0440297
1.49616
1.73254
0.786032
0.958045
0.81132
0.655598
0.501142
0.347263
0.193913
0.0453457
1.49444
1.73308
0.818672
0.948574
0.809968
0.655315
0.50107
0.347255
0.194035
0.046352
1.50029
1.70644
0.882343
0.943778
0.808696
0.655024
0.500993
0.347243
0.194131
0.0470803
1.51285
1.67303
0.943019
0.942642
0.807615
0.654735
0.500914
0.347228
0.194195
0.0475533
1.52731
1.64193
0.991424
0.943207
0.806736
0.654454
0.500833
0.347209
0.194225
0.0477856
1.53796
1.61488
1.03011
0.9445
0.806019
0.654185
0.500753
0.347187
0.194219
0.0477845
1.54166
1.59318
1.06163
0.946141
0.80543
0.65393
0.500674
0.34716
0.194177
0.0475501
1.53844
1.57783
1.0873
0.947907
0.80494
0.653692
0.500597
0.347132
0.194101
0.0470749
1.52818
1.56842
1.1077
0.949649
0.804531
0.653472
0.500525
0.347101
0.193994
0.0463446
1.51104
1.56305
1.12324
0.951241
0.804185
0.653271
0.500457
0.347069
0.193861
0.0453363
1.49065
1.55936
1.13452
0.952546
0.803878
0.653088
0.500395
0.347039
0.19371
0.0440186
1.4737
1.55602
1.14228
0.953441
0.803583
0.652922
0.500339
0.34701
0.193549
0.0423496
1.4656
1.55273
1.1471
0.953851
0.803279
0.652773
0.50029
0.346985
0.19339
0.0402755
1.46671
1.55042
1.14949
0.953727
0.802947
0.652638
0.500249
0.346966
0.193251
0.0376682
1.47175
1.5512
1.14965
0.953037
0.802571
0.652514
0.500214
0.346954
0.193213
0.0339703
0
0
0.924845
0.992143
0.816484
0.656716
0.501414
0.347261
0.193039
0.0319097
0
0
0.92026
0.986425
0.815595
0.656545
0.501376
0.347254
0.19307
0.0355726
0
0
0.891309
0.983297
0.814712
0.656353
0.50133
0.34725
0.193198
0.0381438
0
0
0.903035
0.9775
0.813638
0.656129
0.501276
0.347247
0.193344
0.0401871
1.50859
1.67933
0.816723
0.967461
0.812418
0.655877
0.501215
0.347243
0.193492
0.0418315
1.50374
1.71562
0.803805
0.955788
0.811095
0.655603
0.501146
0.347237
0.19363
0.0431302
1.49903
1.70977
0.852037
0.947829
0.809785
0.655317
0.501072
0.347228
0.193749
0.0441239
1.49742
1.68287
0.911859
0.944654
0.808614
0.655025
0.500994
0.347216
0.193842
0.0448436
1.49739
1.6552
0.961487
0.944167
0.807624
0.654736
0.500913
0.3472
0.193905
0.0453112
1.49717
1.63113
1.00262
0.944765
0.806799
0.654454
0.500831
0.347181
0.193934
0.0455409
1.49583
1.61112
1.03687
0.945915
0.806106
0.654183
0.500749
0.347158
0.193928
0.0455398
1.49319
1.59491
1.06523
0.947358
0.805522
0.653926
0.500668
0.347131
0.193886
0.0453078
1.49002
1.5821
1.08851
0.948901
0.805027
0.653685
0.500591
0.347102
0.193812
0.0448381
1.48632
1.57229
1.10735
0.950394
0.804598
0.653461
0.500517
0.347071
0.193707
0.0441163
1.48164
1.56497
1.12223
0.951715
0.804217
0.653254
0.500448
0.34704
0.193577
0.0431206
1.47653
1.55948
1.13346
0.952771
0.803869
0.653065
0.500384
0.347009
0.19343
0.0418201
1.4724
1.55491
1.14133
0.953491
0.80354
0.652894
0.500328
0.346981
0.193273
0.0401741
1.47153
1.55105
1.14627
0.9538
0.803216
0.652742
0.500279
0.346957
0.19312
0.0381294
1.47524
1.54882
1.1488
0.953628
0.802875
0.652606
0.500237
0.346938
0.192987
0.0355571
1.48047
1.54965
1.14902
0.952924
0.802496
0.652482
0.500203
0.346927
0.192951
0.0318933
0
0
0.914297
0.992691
0.816521
0.65676
0.501426
0.347239
0.192738
0.0286056
0
0
0.910622
0.986043
0.815643
0.656595
0.501389
0.347232
0.19276
0.0321054
0
0
0.875376
0.981813
0.814723
0.656402
0.501343
0.347227
0.192875
0.0345822
0
0
0.885444
0.974417
0.813578
0.656173
0.501289
0.347222
0.19301
0.0365647
1.52464
1.68282
0.827335
0.964037
0.812316
0.655915
0.501225
0.347217
0.193149
0.0381697
1.52032
1.69494
0.847904
0.954512
0.811015
0.655635
0.501155
0.34721
0.193281
0.039442
1.51313
1.67592
0.894144
0.949573
0.80979
0.655342
0.501078
0.3472
0.193396
0.0404183
1.50383
1.65456
0.938225
0.947335
0.808687
0.655044
0.500998
0.347187
0.193486
0.0411266
1.49325
1.63532
0.978657
0.946451
0.807717
0.654747
0.500914
0.34717
0.193546
0.0415873
1.4828
1.61834
1.01385
0.94649
0.806876
0.654457
0.500829
0.34715
0.193574
0.0418139
1.47445
1.60343
1.04388
0.947157
0.806154
0.654177
0.500745
0.347126
0.193568
0.0418127
1.46868
1.59059
1.06924
0.948206
0.805537
0.653912
0.500662
0.347099
0.193527
0.0415839
1.46566
1.57975
1.09039
0.949435
0.805008
0.653662
0.500581
0.34707
0.193454
0.0411208
1.46547
1.57078
1.10773
0.950679
0.804547
0.653429
0.500505
0.347039
0.193352
0.0404104
1.46829
1.5635
1.12161
0.951803
0.804137
0.653215
0.500434
0.347007
0.193227
0.0394321
1.47388
1.5576
1.13232
0.952702
0.803762
0.653019
0.500369
0.346977
0.193085
0.0381579
1.48054
1.55294
1.14014
0.953295
0.803408
0.652843
0.500311
0.34695
0.192937
0.0365513
1.48704
1.54963
1.14531
0.953525
0.803066
0.652688
0.500261
0.346926
0.192795
0.0345674
1.49267
1.54803
1.14805
0.953334
0.802723
0.652552
0.50022
0.346909
0.192674
0.0320894
1.49685
1.54902
1.14839
0.952655
0.802356
0.652432
0.500187
0.346899
0.192648
0.0285887
0
0
0.904941
0.996207
0.816699
0.656817
0.501439
0.347228
0.192544
0.0241887
0
0
0.902987
0.988599
0.816048
0.656685
0.501408
0.347223
0.192566
0.0266797
0
0
0.866136
0.984096
0.815107
0.656496
0.501364
0.347217
0.192649
0.0290045
0
0
0.854112
0.973992
0.813977
0.656263
0.501308
0.347212
0.192766
0.0309478
1.54063
1.67417
0.861945
0.964746
0.812692
0.655996
0.501242
0.347205
0.192896
0.0325259
1.53701
1.6667
0.888625
0.95745
0.811365
0.655705
0.501169
0.347196
0.193022
0.03378
1.52919
1.65474
0.921059
0.952395
0.810081
0.655398
0.501089
0.347185
0.193133
0.0347441
1.51797
1.64054
0.95688
0.949284
0.808899
0.655084
0.501005
0.347171
0.193221
0.0354445
1.50613
1.6259
0.990803
0.9477
0.807848
0.654771
0.500918
0.347153
0.19328
0.0359005
1.49564
1.61194
1.02145
0.947222
0.806934
0.654465
0.500829
0.347132
0.193307
0.0361248
1.48723
1.59919
1.04847
0.947507
0.806148
0.65417
0.500741
0.347107
0.1933
0.0361236
1.48135
1.58789
1.07181
0.948278
0.805475
0.65389
0.500654
0.347079
0.19326
0.0358969
1.47848
1.57813
1.0916
0.949303
0.804898
0.653626
0.50057
0.347049
0.193188
0.0354385
1.47869
1.5699
1.10805
0.950398
0.804397
0.653382
0.500491
0.347018
0.193088
0.0347358
1.48182
1.56318
1.12136
0.951415
0.803954
0.653157
0.500417
0.346987
0.192966
0.0337696
1.48765
1.55791
1.13178
0.952237
0.803553
0.652952
0.50035
0.346957
0.19283
0.0325136
1.49565
1.55408
1.1395
0.952774
0.803178
0.65277
0.50029
0.34693
0.192692
0.0309338
1.50402
1.55162
1.14472
0.952964
0.802819
0.65261
0.50024
0.346907
0.192567
0.028989
1.51003
1.5506
1.14765
0.952794
0.80248
0.652476
0.500199
0.34689
0.192478
0.0266631
1.51283
1.55078
1.14824
0.952305
0.802188
0.652378
0.500171
0.34688
0.192453
0.0241713

VECTORS velocity float
0 0 0
0 0 0
0.776271 -0.0322137 -0.00101115
0.679899 -0.00295877 0.000842552
0.712102 -0.000733085 0.000100496
0.72046 -0.000163303 2.07492e-05
0.722334 -3.67955e-05 4.48798e-06
0.722788 -9.6931e-06 -2.15442e-06
0.723239 -1.42717e-05 -4.01272e-05
0.740786 -0.00120121 -0.00103835
0 0 0
0 0 0
-0.13381 -0.0955673 -0.000708944
0.692404 -0.0124846 0.000659561
0.763795 -0.00243087 0.000125853
0.774655 -0.000524116 2.65012e-05
0.77691 -0.000117706 5.69779e-06
0.777448 -3.09445e-05 -2.00217e-06
0.778072 -5.67583e-05 -4.32475e-05
0.784101 -0.00233783 -0.0012352
0 0 0
0 0 0
0.797007 -0.161832 0.000590716
0.72869 -0.0225307 0.00056602
0.768758 -0.00426142 0.000110099
0.778651 -0.000912901 2.55702e-05
0.780839 -0.000204913 5.62535e-06
0.781362 -5.35315e-05 -2.14071e-06
0.781902 -0.000103457 -4.66847e-05
0.786792 -0.00208742 -0.00126608
0 0 0
0 0 0
-0.119289 -0.230122 0.000514199
0.709976 -0.0312375 0.000128537
0.769543 -0.00596711 9.31495e-05
0.779129 -0.00128128 2.35461e-05
0.781155 -0.000287915 5.22773e-06
0.781639 -7.43989e-05 -2.35486e-06
0.78208 -0.000130551 -4.90959e-05
0.787053 -0.00172594 -0.00127952
0.42248 -0.0178 -0.0385494
0.844873 0.00676932 -0.0239345
0.802264 -0.259544 0.0113698
0.736451 -0.0397922 0.000958773
0.771458 -0.0075128 0.000105449
0.779444 -0.0016146 2.1334e-05
0.781232 -0.000363354 4.64218e-06
0.78166 -9.2577e-05 -2.59362e-06
0.78202 -0.000140239 -5.04073e-05
0.787146 -0.00139321 -0.00128687
0.497191 -0.0478061 -0.0459697
0.967282 0.0128532 -0.0222656
0.914636 -0.245801 0.0141667
0.756121 -0.0450479 0.00139506
0.77351 -0.00877974 0.000106869
0.779807 -0.00190199 1.82857e-05
0.78131 -0.000429076 3.89414e-06
0.781673 -0.000107552 -2.85509e-06
0.781963 -0.000136633 -5.12324e-05
0.787216 -0.00109479 -0.00129148
0.542625 -0.0655828 -0.0522957
0.972948 0.00991478 -0.0181217
0.925492 -0.224258 0.00903081
0.768404 -0.0478511 0.00104761
0.775584 -0.00975004 8.36346e-05
0.780215 -0.00213605 1.42613e-05
0.781398 -0.000483349 3.02055e-06
0.781688 -0.000118999 -3.12673e-06
0.78192 -0.000122929 -5.1766e-05
0.787271 -0.000824482 -0.0012944
0.580669 -0.0710085 -0.0579764
0.96789 0.0055274 -0.015489
0.924005 -0.200978 0.0050631
0.778403 -0.0487652 0.000665022
0.777732 -0.0104139 5.79308e-05
0.780661 -0.00231111 9.97031e-06
0.781496 -0.000524791 2.0677e-06
0.781706 -0.000126743 -3.40024e-06
0.781891 -0.000101721 -5.21162e-05
0.787312 -0.00057561 -0.00129621
0.611582 -0.0660264 -0.0628559
0.962753 0.00193303 -0.0141327
0.921653 -0.177982 0.00275287
0.787167 -0.0481878 0.000390465
0.7799 -0.0107709 3.3384e-05
0.78113 -0.00242346 5.60971e-06
0.781601 -0.000552396 1.06964e-06
0.781727 -0.000130743 -3.66888e-06
0.781874 -7.51944e-05 -5.2343e-05
0.787339 -0.000341755 -0.00129728
0.635239 -0.0527303 -0.0668155
0.958217 -0.000133226 -0.0134856
0.919415 -0.156139 0.00129282
0.79481 -0.046439 0.000198914
0.782019 -0.0108312 1.17648e-05
0.781609 -0.00247135 1.34621e-06