# vtk DataFile Version 2.0
TestTestTest
ASCII

DATASET STRUCTURED_GRID
DIMENSIONS 11 21 11
POINTS 2541 float
0 0 0
0.5 0 0
1 0 0
1.5 0 0
2 0 0
2.5 0 0
3 0 0
3.5 0 0
4 0 0
4.5 0 0
5 0 0
0 0.05 0
0.5 0.05 0
1 0.05 0
1.5 0.05 0
2 0.05 0
2.5 0.05 0
3 0.05 0
3.5 0.05 0
4 0.05 0
4.5 0.05 0
5 0.05 0
0 0.1 0
0.5 0.1 0
1 0.1 0
1.5 0.1 0
2 0.1 0
2.5 0.1 0
3 0.1 0
3.5 0.1 0
4 0.1 0
4.5 0.1 0
5 0.1 0
0 0.15 0
0.5 0.15 0
1 0.15 0
1.5 0.15 0
2 0.15 0
2.5 0.15 0
3 0.15 0
3.5 0.15 0
4 0.15 0
4.5 0.15 0
5 0.15 0
0 0.2 0
0.5 0.2 0
1 0.2 0
1.5 0.2 0
2 0.2 0
2.5 0.2 0
3 0.2 0
3.5 0.2 0
4 0.2 0
4.5 0.2 0
5 0.2 0
0 0.25 0
0.5 0.25 0
1 0.25 0
1.5 0.25 0
2 0.25 0
2.5 0.25 0
3 0.25 0
3.5 0.25 0
4 0.25 0
4.5 0.25 0
5 0.25 0
0 0.3 0
0.5 0.3 0
1 0.3 0
1.5 0.3 0
2 0.3 0
2.5 0.3 0
3 0.3 0
3.5 0.3 0
4 0.3 0
4.5 0.3 0
5 0.3 0
0 0.35 0
0.5 0.35 0
1 0.35 0
1.5 0.35 0
2 0.35 0
2.5 0.35 0
3 0.35 0
3.5 0.35 0
4 0.35 0
4.5 0.35 0
5 0.35 0
0 0.4 0
0.5 0.4 0
1 0.4 0
1.5 0.4 0
2 0.4 0
2.5 0.4 0
3 0.4 0
3.5 0.4 0
4 0.4 0
4.5 0.4 0
5 0.4 0
0 0.45 0
0.5 0.45 0
1 0.45 0
1.5 0.45 0
2 0.45 0
2.5 0.45 0
3 0.45 0
3.5 0.45 0
4 0.45 0
4.5 0.45 0
5 0.45 0
0 0.5 0
0.5 0.5 0
1 0.5 0
1.5 0.5 0
2 0.5 0
2.5 0.5 0
3 0.5 0
3.5 0.5 0
4 0.5 0
4.5 0.5 0
5 0.5 0
0 0.55 0
0.5 0.55 0
1 0.55 0
1.5 0.55 0
2 0.55 0
2.5 0.55 0
3 0.55 0
3.5 0.55 0
4 0.55 0
4.5 0.55 0
5 0.55 0
0 0.6 0
0.5 0.6 0
1 0.6 0
1.5 0.6 0
2 0.6 0
2.5 0.6 0
3 0.6 0
3.5 0.6 0
4 0.6 0
4.5 0.6 0
5 0.6 0
0 0.65 0
0.5 0.65 0
1 0.65 0
1.5 0.65 0
2 0.65 0
2.5 0.65 0
3 0.65 0
3.5 0.65 0
4 0.65 0
4.5 0.65 0
5 0.65 0
0 0.7 0
0.5 0.7 0
1 0.7 0
1.5 0.7 0
2 0.7 0
2.5 0.7 0
3 0.7 0
3.5 0.7 0
4 0.7 0
4.5 0.7 0
5 0.7 0
0 0.75 0
0.5 0.75 0
1 0.75 0
1.5 0.75 0
2 0.75 0
2.5 0.75 0
3 0.75 0
3.5 0.75 0
4 0.75 0
4.5 0.75 0
5 0.75 0
0 0.8 0
0.5 0.8 0
1 0.8 0
1.5 0.8 0
2 0.8 0
2.5 0.8 0
3 0.8 0
3.5 0.8 0
4 0.8 0
4.5 0.8 0
5 0.8 0
0 0.85 0
0.5 0.85 0
1 0.85 0
1.5 0.85 0
2 0.85 0
2.5 0.85 0
3 0.85 0
3.5 0.85 0
4 0.85 0
4.5 0.85 0
5 0.85 0
0 0.9 0
0.5 0.9 0
1 0.9 0
1.5 0.9 0
2 0.9 0
2.5 0.9 0
3 0.9 0
3.5 0.9 0
4 0.9 0
4.5 0.9 0
5 0.9 0
0 0.95 0
0.5 0.95 0
1 0.95 0
1.5 0.95 0
2 0.95 0
2.5 0.95 0
3 0.95 0
3.5 0.95 0
4 0.95 0
4.5 0.95 0
5 0.95 0
0 1 0
0.5 1 0
1 1 0
1.5 1 0
2 1 0
2.5 1 0
3 1 0
3.5 1 0
4 1 0
4.5 1 0
5 1 0
0 0 0.1
0.5 0 0.1
1 0 0.1
1.5 0 0.1
2 0 0.1
2.5 0 0.1
3 0 0.1
3.5 0 0.1
4 0 0.1
4.5 0 0.1
5 0 0.1
0 0.05 0.1
0.5 0.05 0.1
1 0.05 0.1
1.5 0.05 0.1
2 0.05 0.1
2.5 0.05 0.1
3 0.05 0.1
3.5 0.05 0.1
4 0.05 0.1
4.5 0.05 0.1
5 0.05 0.1
0 0.1 0.1
0.5 0.1 0.1
1 0.1 0.1
1.5 0.1 0.1
2 0.1 0.1
2.5 0.1 0.1
3 0.1 0.1
3.5 0.1 0.1
4 0.1 0.1
4.5 0.1 0.1
5 0.1 0.1
0 0.15 0.1
0.5 0.15 0.1
1 0.15 0.1
1.5 0.15 0.1
2 0.15 0.1
2.5 0.15 0.1
3 0.15 0.1
3.5 0.15 0.1
4 0.15 0.1
4.5 0.15 0.1
5 0.15 0.1
0 0.2 0.1
0.5 0.2 0.1
1 0.2 0.1
1.5 0.2 0.1
2 0.2 0.1
2.5 0.2 0.1
3 0.2 0.1
3.5 0.2 0.1
4 0.2 0.1
4.5 0.2 0.1
5 0.2 0.1
0 0.25 0.1
0.5 0.25 0.1
1 0.25 0.1
1.5 0.25 0.1
2 0.25 0.1
2.5 0.25 0.1
3 0.25 0.1
3.5 0.25 0.1
4 0.25 0.1
4.5 0.25 0.1
5 0.25 0.1
0 0.3 0.1
0.5 0.3 0.1
1 0.3 0.1
1.5 0.3 0.1
2 0.3 0.1
2.5 0.3 0.1
3 0.3 0.1
3.5 0.3 0.1
4 0.3 0.1
4.5 0.3 0.1
5 0.3 0.1
0 0.35 0.1
0.5 0.35 0.1
1 0.35 0.1
1.5 0.35 0.1
2 0.35 0.1
2.5 0.35 0.1
3 0.35 0.1
3.5 0.35 0.1
4 0.35 0.1
4.5 0.35 0.1
5 0.35 0.1
0 0.4 0.1
0.5 0.4 0.1
1 0.4 0.1
1.5 0.4 0.1
2 0.4 0.1
2.5 0.4 0.1
3 0.4 0.1
3.5 0.4 0.1
4 0.4 0.1
4.5 0.4 0.1
5 0.4 0.1
0 0.45 0.1
0.5 0.45 0.1
1 0.45 0.1
1.5 0.45 0.1
2 0.45 0.1
2.5 0.45 0.1
3 0.45 0.1
3.5 0.45 0.1
4 0.45 0.1
4.5 0.45 0.1
5 0.45 0.1
0 0.5 0.1
0.5 0.5 0.1
1 0.5 0.1
1.5 0.5 0.1
2 0.5 0.1
2.5 0.5 0.1
3 0.5 0.1
3.5 0.5 0.1
4 0.5 0.1
4.5 0.5 0.1
5 0.5 0.1
0 0.55 0.1
0.5 0.55 0.1
1 0.55 0.1
1.5 0.55 0.1
2 0.55 0.1
2.5 0.55 0.1
3 0.55 0.1
3.5 0.55 0.1
4 0.55 0.1
4.5 0.55 0.1
5 0.55 0.1
0 0.6 0.1
0.5 0.6 0.1
1 0.6 0.1
1.5 0.6 0.1
2 0.6 0.1
2.5 0.6 0.1
3 0.6 0.1
3.5 0.6 0.1
4 0.6 0.1
4.5 0.6 0.1
5 0.6 0.1
0 0.65 0.1
0.5 0.65 0.1
1 0.65 0.1
1.5 0.65 0.1
2 0.65 0.1
2.5 0.65 0.1
3 0.65 0.1
3.5 0.65 0.1
4 0.65 0.1
4.5 0.65 0.1
5 0.65 0.1
0 0.7 0.1
0.5 0.7 0.1
1 0.7 0.1
1.5 0.7 0.1
2 0.7 0.1
2.5 0.7 0.1
3 0.7 0.1
3.5 0.7 0.1
4 0.7 0.1
4.5 0.7 0.1
5 0.7 0.1
0 0.75 0.1
0.5 0.75 0.1
1 0.75 0.1
1.5 0.75 0.1
2 0.75 0.1
2.5 0.75 0.1
3 0.75 0.1
3.5 0.75 0.1
4 0.75 0.1
4.5 0.75 0.1
5 0.75 0.1
0 0.8 0.1
0.5 0.8 0.1
1 0.8 0.1
1.5 0.8 0.1
2 0.8 0.1
2.5 0.8 0.1
3 0.8 0.1
3.5 0.8 0.1
4 0.8 0.1
4.5 0.8 0.1
5 0.8 0.1
0 0.85 0.1
0.5 0.85 0.1
1 0.85 0.1
1.5 0.85 0.1
2 0.85 0.1
2.5 0.85 0.1
3 0.85 0.1
3.5 0.85 0.1
4 0.85 0.1
4.5 0.85 0.1
5 0.85 0.1
0 0.9 0.1
0.5 0.9 0.1
1 0.9 0.1
1.5 0.9 0.1
2 0.9 0.1
2.5 0.9 0.1
3 0.9 0.1
3.5 0.9 0.1
4 0.9 0.1
4.5 0.9 0.1
5 0.9 0.1
0 0.95 0.1
0.5 0.95 0.1
1 0.95 0.1
1.5 0.95 0.1
2 0.95 0.1
2.5 0.95 0.1
3 0.95 0.1
3.5 0.95 0.1
4 0.95 0.1
4.5 0.95 0.1
5 0.95 0.1
0 1 0.1
0.5 1 0.1
1 1 0.1
1.5 1 0.1
2 1 0.1
2.5 1 0.1
3 1 0.1
3.5 1 0.1
4 1 0.1
4.5 1 0.1
5 1 0.1
0 0 0.2
0.5 0 0.2
1 0 0.2
1.5 0 0.2
2 0 0.2
2.5 0 0.2
3 0 0.2
3.5 0 0.2
4 0 0.2
4.5 0 0.2
5 0 0.2
0 0.05 0.2
0.5 0.05 0.2
1 0.05 0.2
1.5 0.05 0.2
2 0.05 0.2
2.5 0.05 0.2
3 0.05 0.2
3.5 0.05 0.2
4 0.05 0.2
4.5 0.05 0.2
5 0.05 0.2
0 0.1 0.2
0.5 0.1 0.2
1 0.1 0.2
1.5 0.1 0.2
2 0.1 0.2
2.5 0.1 0.2
3 0.1 0.2
3.5 0.1 0.2
4 0.1 0.2
4.5 0.1 0.2
5 0.1 0.2
0 0.15 0.2
0.5 0.15 0.2
1 0.15 0.2
1.5 0.15 0.2
2 0.15 0.2
2.5 0.15 0.2
3 0.15 0.2
3.5 0.15 0.2
4 0.15 0.2
4.5 0.15 0.2
5 0.15 0.2
0 0.2 0.2
0.5 0.2 0.2
1 0.2 0.2
1.5 0.2 0.2
2 0.2 0.2
2.5 0.2 0.2
3 0.2 0.2
3.5 0.2 0.2
4 0.2 0.2
4.5 0.2 0.2
5 0.2 0.2
0 0.25 0.2
0.5 0.25 0.2
1 0.25 0.2
1.5 0.25 0.2
2 0.25 0.2
2.5 0.25 0.2
3 0.25 0.2
3.5 0.25 0.2
4 0.25 0.2
4.5 0.25 0.2
5 0.25 0.2
0 0.3 0.2
0.5 0.3 0.2
1 0.3 0.2
1.5 0.3 0.2
2 0.3 0.2
2.5 0.3 0.2
3 0.3 0.2
3.5 0.3 0.2
4 0.3 0.2
4.5 0.3 0.2
5 0.3 0.2
0 0.35 0.2
0.5 0.35 0.2
1 0.35 0.2
1.5 0.35 0.2
2 0.35 0.2
2.5 0.35 0.2
3 0.35 0.2
3.5 0.35 0.2
4 0.35 0.2
4.5 0.35 0.2
5 0.35 0.2
0 0.4 0.2
0.5 0.4 0.2
1 0.4 0.2
1.5 0.4 0.2
2 0.4 0.2
2.5 0.4 0.2
3 0.4 0.2
3.5 0.4 0.2
4 0.4 0.2
4.5 0.4 0.2
5 0.4 0.2
0 0.45 0.2
0.5 0.45 0.2
1 0.45 0.2
1.5 0.45 0.2
2 0.45 0.2
2.5 0.45 0.2
3 0.45 0.2
3.5 0.45 0.2
4 0.45 0.2
4.5 0.45 0.2
5 0.45 0.2
0 0.5 0.2
0.5 0.5 0.2
1 0.5 0.2
1.5 0.5 0.2
2 0.5 0.2
2.5 0.5 0.2
3 0.5 0.2
3.5 0.5 0.2
4 0.5 0.2
4.5 0.5 0.2
5 0.5 0.2
0 0.55 0.2
0.5 0.55 0.2
1 0.55 0.2
1.5 0.55 0.2
2 0.55 0.2
2.5 0.55 0.2
3 0.55 0.2
3.5 0.55 0.2
4 0.55 0.2
4.5 0.55 0.2
5 0.55 0.2
0 0.6 0.2
0.5 0.6 0.2
1 0.6 0.2
1.5 0.6 0.2
2 0.6 0.2
2.5 0.6 0.2
3 0.6 0.2
3.5 0.6 0.2
4 0.6 0.2
4.5 0.6 0.2
5 0.6 0.2
0 0.65 0.2
0.5 0.65 0.2
1 0.65 0.2
1.5 0.65 0.2
2 0.65 0.2
2.5 0.65 0.2
3 0.65 0.2
3.5 0.65 0.2
4 0.65 0.2
4.5 0.65 0.2
5 0.65 0.2
0 0.7 0.2
0.5 0.7 0.2
1 0.7 0.2
1.5 0.7 0.2
2 0.7 0.2
2.5 0.7 0.2
3 0.7 0.2
3.5 0.7 0.2
4 0.7 0.2
4.5 0.7 0.2
5 0.7 0.2
0 0.75 0.2
0.5 0.75 0.2
1 0.75 0.2
1.5 0.75 0.2
2 0.75 0.2
2.5 0.75 0.2
3 0.75 0.2
3.5 0.75 0.2
4 0.75 0.2
4.5 0.75 0.2
5 0.75 0.2
0 0.8 0.2
0.5 0.8 0.2
1 0.8 0.2
1.5 0.8 0.2
2 0.8 0.2
2.5 0.8 0.2
3 0.8 0.2
3.5 0.8 0.2
4 0.8 0.2
4.5 0.8 0.2
5 0.8 0.2
0 0.85 0.2
0.5 0.85 0.2
1 0.85 0.2
1.5 0.85 0.2
2 0.85 0.2
2.5 0.85 0.2
3 0.85 0.2
3.5 0.85 0.2
4 0.85 0.2
4.5 0.85 0.2
5 0.85 0.2
0 0.9 0.2
0.5 0.9 0.2
1 0.9 0.2
1.5 0.9 0.2
2 0.9 0.2
2.5 0.9 0.2
3 0.9 0.2
3.5 0.9 0.2
4 0.9 0.2
4.5 0.9 0.2
5 0.9 0.2
0 0.95 0.2
0.5 0.95 0.2
1 0.95 0.2
1.5 0.95 0.2
2 0.95 0.2
2.5 0.95 0.2
3 0.95 0.2
3.5 0.95 0.2
4 0.95 0.2
4.5 0.95 0.2
5 0.95 0.2
0 1 0.2
0.5 1 0.2
1 1 0.2
1.5 1 0.2
2 1 0.2
2.5 1 0.2
3 1 0.2
3.5 1 0.2
4 1 0.2
4.5 1 0.2
5 1 0.2
0 0 0.3
0.5 0 0.3
1 0 0.3
1.5 0 0.3
2 0 0.3
2.5 0 0.3
3 0 0.3
3.5 0 0.3
4 0 0.3
4.5 0 0.3
5 0 0.3
0 0.05 0.3
0.5 0.05 0.3
1 0.05 0.3
1.5 0.05 0.3
2 0.05 0.3
2.5 0.05 0.3
3 0.05 0.3
3.5 0.05 0.3
4 0.05 0.3
4.5 0.05 0.3
5 0.05 0.3
0 0.1 0.3
0.5 0.1 0.3
1 0.1 0.3
1.5 0.1 0.3
2 0.1 0.3
2.5 0.1 0.3
3 0.1 0.3
3.5 0.1 0.3
4 0.1 0.3
4.5 0.1 0.3
5 0.1 0.3
0 0.15 0.3
0.5 0.15 0.3
1 0.15 0.3
1.5 0.15 0.3
2 0.15 0.3
2.5 0.15 0.3
3 0.15 0.3
3.5 0.15 0.3
4 0.15 0.3
4.5 0.15 0.3
5 0.15 0.3
0 0.2 0.3
0.5 0.2 0.3
1 0.2 0.3
1.5 0.2 0.3
2 0.2 0.3
2.5 0.2 0.3
3 0.2 0.3
3.5 0.2 0.3
4 0.2 0.3
4.5 0.2 0.3
5 0.2 0.3
0 0.25 0.3
0.5 0.25 0.3
1 0.25 0.3
1.5 0.25 0.3
2 0.25 0.3
2.5 0.25 0.3
3 0.25 0.3
3.5 0.25 0.3
4 0.25 0.3
4.5 0.25 0.3
5 0.25 0.3
0 0.3 0.3
0.5 0.3 0.3
1 0.3 0.3
1.5 0.3 0.3
2 0.3 0.3
2.5 0.3 0.3
3 0.3 0.3
3.5 0.3 0.3
4 0.3 0.3
4.5 0.3 0.3
5 0.3 0.3
0 0.35 0.3
0.5 0.35 0.3
1 0.35 0.3
1.5 0.35 0.3
2 0.35 0.3
2.5 0.35 0.3
3 0.35 0.3
3.5 0.35 0.3
4 0.35 0.3
4.5 0.35 0.3
5 0.35 0.3
0 0.4 0.3
0.5 0.4 0.3
1 0.4 0.3
1.5 0.4 0.3
2 0.4 0.3
2.5 0.4 0.3
3 0.4 0.3
3.5 0.4 0.3
4 0.4 0.3
4.5 0.4 0.3
5 0.4 0.3
0 0.45 0.3
0.5 0.45 0.3
1 0.45 0.3
1.5 0.45 0.3
2 0.45 0.3
2.5 0.45 0.3
3 0.45 0.3
3.5 0.45 0.3
4 0.45 0.3
4.5 0.45 0.3
5 0.45 0.3
0 0.5 0.3
0.5 0.5 0.3
1 0.5 0.3
1.5 0.5 0.3
2 0.5 0.3
2.5 0.5 0.3
3 0.5 0.3
3.5 0.5 0.3
4 0.5 0.3
4.5 0.5 0.3
5 0.5 0.3
0 0.55 0.3
0.5 0.55 0.3
1 0.55 0.3
1.5 0.55 0.3
2 0.55 0.3
2.5 0.55 0.3
3 0.55 0.3
3.5 0.55 0.3
4 0.55 0.3
4.5 0.55 0.3
5 0.55 0.3
0 0.6 0.3
0.5 0.6 0.3
1 0.6 0.3
1.5 0.6 0.3
2 0.6 0.3
2.5 0.6 0.3
3 0.6 0.3
3.5 0.6 0.3
4 0.6 0.3
4.5 0.6 0.3
5 0.6 0.3
0 0.65 0.3
0.5 0.65 0.3
1 0.65 0.3
1.5 0.65 0.3
2 0.65 0.3
2.5 0.65 0.3
3 0.65 0.3
3.5 0.65 0.3
4 0.65 0.3
4.5 0.65 0.3
5 0.65 0.3
0 0.7 0.3
0.5 0.7 0.3
1 0.7 0.3
1.5 0.7 0.3
2 0.7 0.3
2.5 0.7 0.3
3 0.7 0.3
3.5 0.7 0.3
4 0.7 0.3
4.5 0.7 0.3
5 0.7 0.3
0 0.75 0.3
0.5 0.75 0.3
1 0.75 0.3
1.5 0.75 0.3
2 0.75 0.3
2.5 0.75 0.3
3 0.75 0.3
3.5 0.75 0.3
4 0.75 0.3
4.5 0.75 0.3
5 0.75 0.3
0 0.8 0.3
0.5 0.8 0.3
1 0.8 0.3
1.5 0.8 0.3
2 0.8 0.3
2.5 0.8 0.3
3 0.8 0.3
3.5 0.8 0.3
4 0.8 0.3
4.5 0.8 0.3
5 0.8 0.3
0 0.85 0.3
0.5 0.85 0.3
1 0.85 0.3
1.5 0.85 0.3
2 0.85 0.3
2.5 0.85 0.3
3 0.85 0.3
3.5 0.85 0.3
4 0.85 0.3
4.5 0.85 0.3
5 0.85 0.3
0 0.9 0.3
0.5 0.9 0.3
1 0.9 0.3
1.5 0.9 0.3
2 0.9 0.3
2.5 0.9 0.3
3 0.9 0.3
3.5 0.9 0.3
4 0.9 0.3
4.5 0.9 0.3
5 0.9 0.3
0 0.95 0.3
0.5 0.95 0.3
1 0.95 0.3
1.5 0.95 0.3
2 0.95 0.3
2.5 0.95 0.3
3 0.95 0.3
3.5 0.95 0.3
4 0.95 0.3
4.5 0.95 0.3
5 0.95 0.3
0 1 0.3
0.5 1 0.3
1 1 0.3
1.5 1 0.3
2 1 0.3
2.5 1 0.3
3 1 0.3
3.5 1 0.3
4 1 0.3
4.5 1 0.3
5 1 0.3
0 0 0.4
[...]
CELL_DATA 2000
SCALARS pressure float 1
LOOKUP_TABLE default
0
0
0.750489
1.02234
0.862673
0.700734
0.536368
0.371393
0.205385
0.0245
0
0
0.756102
1.01446
0.862193
0.700661
0.536352
0.371393
0.205455
0.0276096
0
0
0.721562
1.01095
0.861754
0.700614
0.536342
0.371398
0.20558
0.0302614
0
0
0.732565
1.00162
0.861405
0.700597
0.536338
0.371407
0.205733
0.0324569
2.48719
2.7176
0.76645
0.995356
0.861232
0.700612
0.53634
0.371419
0.205895
0.034245
2.47883
2.67621
0.844042
0.993819
0.861325
0.700664
0.536348
0.371433
0.20605
0.0356694
2.46408
2.62269
0.927513
0.996318
0.861719
0.700752
0.536362
0.371446
0.206187
0.0367664
2.44433
2.56644
1.00824
1.00159
0.862407
0.700874
0.536381
0.371457
0.206296
0.0375646
2.42301
2.51223
1.0825
1.00876
0.863348
0.701028
0.536403
0.371467
0.206372
0.0380852
2.40265
2.46242
1.14888
1.01707
0.864489
0.701205
0.536429
0.371473
0.206411
0.0383419
2.38451
2.41797
1.207
1.02592
0.865763
0.701399
0.536456
0.371475
0.206411
0.0383418
2.36962
2.3791
1.25706
1.03481
0.867103
0.701601
0.536483
0.371473
0.206371
0.0380848
2.35886
2.34569
1.29954
1.04335
0.868443
0.7018
0.536509
0.371468
0.206295
0.037564
2.35262
2.31746
1.33497
1.05123
0.86972
0.701988
0.536532
0.371459
0.206184
0.0367655
2.35057
2.29417
1.36391
1.05821
0.870875
0.702155
0.536551
0.371447
0.206047
0.0356682
2.35232
2.27557
1.3869
1.0641
0.87186
0.702293
0.536565
0.371434
0.20589
0.0342434
2.35726
2.26152
1.40439
1.06875
0.872633
0.702394
0.536573
0.371419
0.205727
0.0324549
2.36355
2.25183
1.41677
1.07208
0.87316
0.702454
0.536574
0.371406
0.205572
0.0302589
2.36851
2.24638
1.42433
1.07401
0.873419
0.702468
0.536568
0.371395
0.205445
0.0276067
2.37155
2.24487
1.42712
1.07448
0.873395
0.702434
0.536555
0.371386
0.205372
0.0244966
0
0
0.737269
1.01858
0.862144
0.700629
0.536346
0.371405
0.205636
0.0296517
0
0
0.743146
1.01143
0.861636
0.70055
0.536329
0.371405
0.205714
0.033145
0
0
0.693973
1.00864
0.861242
0.700507
0.536319
0.371411
0.205846
0.0359077
0
0
0.738596
1.0002
0.860933
0.700498
0.536317
0.371421
0.206003
0.0381643
2.47219
2.88015
0.622035
0.990679
0.860794
0.700525
0.536322
0.371434
0.206168
0.0399878
2.46251
2.78721
0.744983
0.987683
0.860934
0.70059
0.536333
0.371448
0.206325
0.0414333
2.44743
2.69257
0.865991
0.991941
0.861401
0.700693
0.53635
0.371462
0.206463
0.042543
2.42873
2.6121
0.969968
0.998605
0.862171
0.700832
0.536373
0.371474
0.206574
0.0433489
2.4073
2.54366
1.05862
1.00678
0.863195
0.701002
0.536399
0.371485
0.20665
0.0438738
2.38476
2.48539
1.13402
1.01583
0.864412
0.701196
0.536429
0.371492
0.20669
0.0441326
2.36455
2.43561
1.19791
1.02522
0.865756
0.701405
0.536459
0.371495
0.20669
0.0441325
2.34851
2.39313
1.25171
1.03451
0.867157
0.701622
0.53649
0.371494
0.20665
0.0438736
2.33746
2.35693
1.2966
1.04334
0.868549
0.701835
0.53652
0.37149
0.206573
0.0433486
2.33181
2.32627
1.33358
1.05143
0.869869
0.702035
0.536546
0.371481
0.206462
0.0425425
2.33129
2.30064
1.36349
1.05856
0.871061
0.702213
0.536568
0.37147
0.206323
0.0414326
2.33467
2.27968
1.38703
1.06455
0.872075
0.702359
0.536584
0.371457
0.206165
0.0399868
2.33907
2.26337
1.40479
1.06928
0.872869
0.702468
0.536594
0.371443
0.205999
0.038163
2.34358
2.25183
1.41722
1.07264
0.873411
0.702532
0.536597
0.37143
0.20584
0.035906
2.34818
2.24501
1.42468
1.07458
0.873676
0.702548
0.536591
0.371418
0.205706
0.0331428
2.3521
2.24304
1.42739
1.07501
0.873637
0.70251
0.536577
0.371409
0.205625
0.0296489
0
0
0.721572
1.01486
0.861719
0.700546
0.53633
0.371429
0.205964
0.0332351
0
0
0.72318
1.00878
0.861231
0.700468
0.536313
0.371429
0.206045
0.0367887
0
0
0.67787
1.00685
0.860883
0.70043
0.536304
0.371435
0.20618
0.0396025
0
0
0.723791
1.0002
0.860628
0.700428
0.536303
0.371446
0.206341
0.0418982
2.45968
3.00434
0.500939
0.987906
0.860505
0.700463
0.53631
0.371459
0.206508
0.04375
2.44816
2.91552
0.632112
0.981796
0.860628
0.700537
0.536323
0.371474
0.206668
0.0452152
2.43415
2.78291
0.793758
0.986151
0.861092
0.700649
0.536343
0.371489
0.206807
0.0463384
2.42272
2.67715
0.922348
0.994038
0.861888
0.700798
0.536368
0.371502
0.206919
0.047153
2.41206
2.59218
1.02709
1.00327
0.862958
0.700978
0.536397
0.371513
0.206997
0.0476832
2.39956
2.5229
1.11334
1.01318
0.864226
0.701182
0.536429
0.371521
0.207036
0.0479445
2.38472
2.4659
1.18461
1.02326
0.865622
0.701403
0.536463
0.371525
0.207036
0.0479445
2.36985
2.41832
1.24344
1.03311
0.867074
0.701629
0.536496
0.371525
0.206997
0.0476832
2.35836
2.37804
1.29176
1.04238
0.868514
0.701852
0.536528
0.37152
0.206919
0.0471529
2.35066
2.34373
1.33103
1.05081
0.869877
0.702061
0.536557
0.371513
0.206807
0.0463382
2.34375
2.31474
1.36244
1.0582
0.871105
0.702247
0.536581
0.371502
0.206667
0.0452149
2.33597
2.29074
1.38687
1.0644
0.872152
0.702401
0.536599
0.371489
0.206507
0.0437494
2.32855
2.27139
1.40502
1.06929
0.872976
0.702515
0.53661
0.371475
0.206338
0.0418974
2.3249
2.25693
1.41754
1.07278
0.873541
0.702584
0.536614
0.371462
0.206176
0.0396013
2.32783
2.24798
1.42498
1.07478
0.873819
0.702602
0.536609
0.37145
0.206039
0.036787
2.33351
2.24488
1.42762
1.07523
0.873784
0.702564
0.536595
0.371441
0.205956
0.0332328
0
0
0.70398
1.01252
0.861423
0.70049
0.53632
0.371453
0.206241
0.0354523
0
0
0.703428
1.00665
0.860949
0.700414
0.536303
0.371453
0.206323
0.0390196
0
0
0.653829
1.00501
0.860626
0.700379
0.536295
0.37146
0.206459
0.0418515
0
0
0.68975
0.998682
0.860408
0.700382
0.536295
0.37147
0.206622
0.0441648
2.45486
3.08309
0.457784
0.986341
0.860327
0.700423
0.536303
0.371484
0.206791
0.0460316
2.44248
2.98965
0.575438
0.979942
0.860486
0.700504
0.536318
0.371499
0.206952
0.0475087
2.42993
2.84499
0.746643
0.983761
0.860948
0.700623
0.536339
0.371514
0.207093
0.0486408
2.42426
2.72727
0.887616
0.99143
0.861718
0.700776
0.536365
0.371528
0.207205
0.0494617
2.42555
2.6328
1.00252
1.00071
0.862774
0.70096
0.536396
0.37154
0.207284
0.0499958
2.42868
2.55608
1.09631
1.01087
0.864045
0.701169
0.53643
0.371548
0.207324
0.050259
2.42739
2.49252
1.1732
1.02128
0.865455
0.701394
0.536465
0.371552
0.207324
0.0502591
2.41979
2.43952
1.23624
1.03147
0.866929
0.701626
0.536501
0.371553
0.207284
0.0499959
2.40787
2.39551
1.28765
1.04106
0.868393
0.701854
0.536534
0.371549
0.207206
0.0494617
2.39197
2.35898
1.32904
1.0498
0.869787
0.702069
0.536564
0.371541
0.207093
0.0486407
2.37054
2.32813
1.36164
1.0575
0.871055
0.702261
0.53659
0.371531
0.206952
0.0475086
2.34617
2.30172
1.38662
1.06398
0.872144
0.702421
0.536609
0.371518
0.206791
0.0460313
2.32594
2.2798
1.40504
1.06908
0.873002
0.702541
0.536622
0.371504
0.20662
0.0441642
2.31589
2.26304
1.4177
1.0727
0.873591
0.702614
0.536626
0.371491
0.206457
0.0418506
2.31701
2.25229
1.42515
1.07478
0.873883
0.702634
0.536621
0.37148
0.206319
0.0390183
2.32351
2.24822
1.42776
1.07526
0.873855
0.702597
0.536607
0.371471
0.206234
0.0354504
0
0
0.692904
1.01127
0.861269
0.700462
0.536315
0.371467
0.206395
0.0365075
0
0
0.691231
1.00544
0.860801
0.700386
0.536298
0.371468
0.206478
0.0400785
0
0
0.639238
1.00387
0.860491
0.700353
0.536291
0.371474
0.206615
0.0429162
0
0
0.672202
0.997617
0.860289
0.700359
0.536291
0.371485
0.206778
0.045236
2.45379
3.1184
0.438808
0.985336
0.86023
0.700404
0.536299
0.371499
0.206948
0.0471088
2.4411
3.0232
0.554621
0.97903
0.860413
0.700488
0.536315
0.371514
0.207109
0.0485912
2.43011
2.87521
0.725943
0.983068
0.860906
0.700611
0.536337
0.37153
0.207251
0.0497274
2.4287
2.75377
0.869377
0.990937
0.861697
0.700768
0.536365
0.371544
0.207364
0.0505513
2.43647
2.65533
0.988329
1.00007
0.862737
0.700955
0.536396
0.371556
0.207443
0.0510875
2.44847
2.57447
1.08657
1.00988
0.863964
0.701163
0.536431
0.371564
0.207483
0.0513517
2.4578
2.50693
1.16713
1.02005
0.865335
0.701387
0.536467
0.371569
0.207483
0.0513517
2.45736
2.45025
1.23278
1.03022
0.866793
0.701619
0.536503
0.371569
0.207443
0.0510876
2.44515
2.40413
1.28579
1.04001
0.868274
0.70185
0.536537
0.371566
0.207365
0.0505514
2.42158
2.36696
1.32801
1.04905
0.869704
0.702069
0.536568
0.371558
0.207252
0.0497275
2.38903
2.33549
1.36109
1.05701
0.871007
0.702266
0.536594
0.371548
0.20711
0.0485912
2.35526
2.3082
1.3864
1.06367
0.872122
0.70243
0.536614
0.371535
0.206948
0.0471087
2.32808
2.28507
1.40501
1.0689
0.873
0.702552
0.536627
0.371522
0.206777
0.0452355
2.31343
2.26706
1.41775
1.0726
0.873603
0.702627
0.536632
0.371508
0.206612
0.0429155
2.31281
2.25528
1.42524
1.07473
0.873904
0.702649
0.536628
0.371497
0.206474
0.0400773
2.31961
2.25065
1.42783
1.07523
0.87388
0.702612
0.536614
0.371488
0.206389
0.0365057
0
0
0.692904
1.01127
0.861269
0.700462
0.536315
0.371467
0.206395
0.0365075
0
0
0.691231
1.00544
0.860801
0.700386
0.536298
0.371468
0.206478
0.0400785
0
0
0.639238
1.00387
0.860491
0.700353
0.536291
0.371474
0.206615
0.0429162
0
0
0.672202
0.997617
0.860289
0.700359
0.536291
0.371485
0.206778
0.045236
2.45379
3.1184
0.438808
0.985336
0.86023
0.700404
0.536299
0.371499
0.206948
0.0471088
2.4411
3.0232
0.554621
0.97903
0.860413
0.700488
0.536315
0.371514
0.207109
0.0485912
2.43011
2.87521
0.725943
0.983068
0.860906
0.700611
0.536337
0.37153
0.207251
0.0497274
2.4287
2.75377
0.869377
0.990937
0.861697
0.700768
0.536365
0.371544
0.207364
0.0505513
2.43647
2.65533
0.988329
1.00007
0.862737
0.700955
0.536396
0.371556
0.207443
0.0510875
2.44847
2.57447
1.08657
1.00988
0.863964
0.701163
0.536431
0.371564
0.207483
0.0513517
2.4578
2.50693
1.16713
1.02005
0.865335
0.701387
0.536467
0.371569
0.207483
0.0513517
2.45736
2.45025
1.23278
1.03022
0.866793
0.701619
0.536503
0.371569
0.207443
0.0510876
2.44515
2.40413
1.28579
1.04001
0.868274
0.70185
0.536537
0.371566
0.207365
0.0505514
2.42158
2.36696
1.32801
1.04905
0.869704
0.702069
0.536568
0.371558
0.207252
0.0497275
2.38903
2.33549
1.36109
1.05701
0.871007
0.702266
0.536594
0.371548
0.20711
0.0485912
2.35526
2.3082
1.3864
1.06367
0.872122
0.70243
0.536614
0.371535
0.206948
0.0471087
2.32808
2.28507
1.40501
1.0689
0.873
0.702552
0.536627
0.371522
0.206777
0.0452355
2.31343
2.26706
1.41775
1.0726
0.873603
0.702627
0.536632
0.371508
0.206612
0.0429155
2.31281
2.25528
1.42524
1.07473
0.873904
0.702649
0.536628
0.371497
0.206474
0.0400773
2.31961
2.25065
1.42783
1.07523
0.87388
0.702612
0.536614
0.371488
0.206389
0.0365057
0
0
0.70398
1.01252
0.861423
0.70049
0.53632
0.371453
0.206241
0.0354523
0
0
0.703428
1.00665
0.860949
0.700414
0.536303
0.371453
0.206323
0.0390196
0
0
0.653829
1.00501
0.860626
0.700379
0.536295
0.37146
0.206459
0.0418515
0
0
0.68975
0.998682
0.860408
0.700382
0.536295
0.37147
0.206622
0.0441648
2.45486
3.08309
0.457784
0.986341
0.860327
0.700423
0.536303
0.371484
0.206791
0.0460316
2.44248
2.98965
0.575438
0.979942
0.860486
0.700504
0.536318
0.371499
0.206952
0.0475087
2.42993
2.84499
0.746643
0.983761
0.860948
0.700623
0.536339
0.371514
0.207093
0.0486408
2.42426
2.72727
0.887616
0.99143
0.861718
0.700776
0.536365
0.371528
0.207205
0.0494617
2.42555
2.6328
1.00252
1.00071
0.862774
0.70096
0.536396
0.37154
0.207284
0.0499958
2.42868
2.55608
1.09631
1.01087
0.864045
0.701169
0.53643
0.371548
0.207324
0.050259
2.42739
2.49252
1.1732
1.02128
0.865455
0.701394
0.536465
0.371552
0.207324
0.0502591
2.41979
2.43952
1.23624
1.03147
0.866929
0.701626
0.536501
0.371553
0.207284
0.0499959
2.40787
2.39551
1.28765
1.04106
0.868393
0.701854
0.536534
0.371549
0.207206
0.0494617
2.39197
2.35898
1.32904
1.0498
0.869787
0.702069
0.536564
0.371541
0.207093
0.0486407
2.37054
2.32813
1.36164
1.0575
0.871055
0.702261
0.53659
0.371531
0.206952
0.0475086
2.34617
2.30172
1.38662
1.06398
0.872144
0.702421
0.536609
0.371518
0.206791
0.0460313
2.32594
2.2798
1.40504
1.06908
0.873002
0.702541
0.536622
0.371504
0.20662
0.0441642
2.31589
2.26304
1.4177
1.0727
0.873591
0.702614
0.536626
0.371491
0.206457
0.0418506
2.31701
2.25229
1.42515
1.07478
0.873883
0.702634
0.536621
0.37148
0.206319
0.0390183
2.32351
2.24822
1.42776
1.07526
0.873855
0.702597
0.536607
0.371471
0.206234
0.0354504
0
0
0.721572
1.01486
0.861719
0.700546
0.53633
0.371429
0.205964
0.0332351
0
0
0.72318
1.00878
0.861231
0.700468
0.536313
0.371429
0.206045
0.0367887
0
0
0.67787
1.00685
0.860883
0.70043
0.536304
0.371435
0.20618
0.0396025
0
0
0.723791
1.0002
0.860628
0.700428
0.536303
0.371446
0.206341
0.0418982
2.45968
3.00434
0.500939
0.987906
0.860505
0.700463
0.53631
0.371459
0.206508
0.04375
2.44816
2.91552
0.632112
0.981796
0.860628
0.700537
0.536323
0.371474
0.206668
0.0452152
2.43415
2.78291
0.793758
0.986151
0.861092
0.700649
0.536343
0.371489
0.206807
0.0463384
2.42272
2.67715
0.922348
0.994038
0.861888
0.700798
0.536368
0.371502
0.206919
0.047153
2.41206
2.59218
1.02709
1.00327
0.862958
0.700978
0.536397
0.371513
0.206997
0.0476832
2.39956
2.5229
1.11334
1.01318
0.864226
0.701182
0.536429
0.371521
0.207036
0.0479445
2.38472
2.4659
1.18461
1.02326
0.865622
0.701403
0.536463
0.371525
0.207036
0.0479445
2.36985
2.41832
1.24344
1.03311
0.867074
0.701629
0.536496
0.371525
0.206997
0.0476832
2.35836
2.37804
1.29176
1.04238
0.868514
0.701852
0.536528
0.37152
0.206919
0.0471529
2.35066
2.34373
1.33103
1.05081
0.869877
0.702061
0.536557
0.371513
0.206807
0.0463382
2.34375
2.31474
1.36244
1.0582
0.871105
0.702247
0.536581
0.371502
0.206667
0.0452149
2.33597
2.29074
1.38687
1.0644
0.872152
0.702401
0.536599
0.371489
0.206507
0.0437494
2.32855
2.27139
1.40502
1.06929
0.872976
0.702515
0.53661
0.371475
0.206338
0.0418974
2.3249
2.25693
1.41754
1.07278
0.873541
0.702584
0.536614
0.371462
0.206176
0.0396013
2.32783
2.24798
1.42498
1.07478
0.873819
0.702602
0.536609
0.37145
0.206039
0.036787
2.33351
2.24488
1.42762
1.07523
0.873784
0.702564
0.536595
0.371441
0.205956
0.0332328
0
0
0.737269
1.01858
0.862144
0.700629
0.536346
0.371405
0.205636
0.0296517
0
0
0.743146
1.01143
0.861636
0.70055
0.536329
0.371405
0.205714
0.033145
0
0
0.693973
1.00864
0.861242
0.700507
0.536319
0.371411
0.205846
0.0359077
0
0
0.738596
1.0002
0.860933
0.700498
0.536317
0.371421
0.206003
0.0381643
2.47219
2.88015
0.622035
0.990679
0.860794
0.700525
0.536322
0.371434
0.206168
0.0399878
2.46251
2.78721
0.744983
0.987683
0.860934
0.70059
0.536333
0.371448
0.206325
0.0414333
2.44743
2.69257
0.865991
0.991941
0.861401
0.700693
0.53635
0.371462
0.206463
0.042543
2.42873
2.6121
0.969968
0.998605
0.862171
0.700832
0.536373
0.371474
0.206574
0.0433489
2.4073
2.54366
1.05862
1.00678
0.863195
0.701002
0.536399
0.371485
0.20665
0.0438738
2.38476
2.48539
1.13402
1.01583
0.864412
0.701196
0.536429
0.371492
0.20669
0.0441326
2.36455
2.43561
1.19791
1.02522
0.865756
0.701405
0.536459
0.371495
0.20669
0.0441325
2.34851
2.39313
1.25171
1.03451
0.867157
0.701622
0.53649
0.371494
0.20665
0.0438736
2.33746
2.35693
1.2966
1.04334
0.868549
0.701835
0.53652
0.37149
0.206573
0.0433486
2.33181
2.32627
1.33358
1.05143
0.869869
0.702035
0.536546
0.371481
0.206462
0.0425425
2.33129
2.30064
1.36349
1.05856
0.871061
0.702213
0.536568
0.37147
0.206323
0.0414326
2.33467
2.27968
1.38703
1.06455
0.872075
0.702359
0.536584
0.371457
0.206165
0.0399868
2.33907
2.26337
1.40479
1.06928
0.872869
0.702468
0.536594
0.371443
0.205999
0.038163
2.34358
2.25183
1.41722
1.07264
0.873411
0.702532
0.536597
0.37143
0.20584
0.035906
2.34818
2.24501
1.42468
1.07458
0.873676
0.702548
0.536591
0.371418
0.205706
0.0331428
2.3521
2.24304
1.42739
1.07501
0.873637
0.70251
0.536577
0.371409
0.205625
0.0296489
0
0
0.750489
1.02234
0.862673
0.700734
0.536368
0.371393
0.205385
0.0245
0
0
0.756102
1.01446
0.862193
0.700661
0.536352
0.371393
0.205455
0.0276096
0
0
0.721562
1.01095
0.861754
0.700614
0.536342
0.371398
0.20558
0.0302614
0
0
0.732565
1.00162
0.861405
0.700597
0.536338
0.371407
0.205733
0.0324569
2.48719
2.7176
0.76645
0.995356
0.861232
0.700612
0.53634
0.371419
0.205895
0.034245
2.47883
2.67621
0.844042
0.993819
0.861325
0.700664
0.536348
0.371433
0.20605
0.0356694
2.46408
2.62269
0.927513
0.996318
0.861719
0.700752
0.536362
0.371446
0.206187
0.0367664
2.44433
2.56644
1.00824
1.00159
0.862407
0.700874
0.536381
0.371457
0.206296
0.0375646
2.42301
2.51223
1.0825
1.00876
0.863348
0.701028
0.536403
0.371467
0.206372
0.0380852
2.40265
2.46242
1.14888
1.01707
0.864489
0.701205
0.536429
0.371473
0.206411
0.0383419
2.38451
2.41797
1.207
1.02592
0.865763
0.701399
0.536456
0.371475
0.206411
0.0383418
2.36962
2.3791
1.25706
1.03481
0.867103
0.701601
0.536483
0.371473
0.206371
0.0380848
2.35886
2.34569
1.29954
1.04335
0.868443
0.7018
0.536509
0.371468
0.206295
0.037564
2.35262
2.31746
1.33497
1.05123
0.86972
0.701988
0.536532
0.371459
0.206184
0.0367655
2.35057
2.29417
1.36391
1.05821
0.870875
0.702155
0.536551
0.371447
0.206047
0.0356682
2.35232
2.27557
1.3869
1.0641
0.87186
0.702293
0.536565
0.371434
0.20589
0.0342434
2.35726
2.26152
1.40439
1.06875
0.872633
0.702394
0.536573
0.371419
0.205727
0.0324549
2.36355
2.25183
1.41677
1.07208
0.87316
0.702454
0.536574
0.371406
0.205572
0.0302589
2.36851
2.24638
1.42433
1.07401
0.873419
0.702468
0.536568
0.371395
0.205445
0.0276067
2.37155
2.24487
1.42712
1.07448
0.873395
0.702434
0.536555
0.371386
0.205372
0.0244966

VECTORS velocity float
0 0 0
0 0 0
0.878424 -0.0344026 0.00070911
0.725817 -0.00449706 9.875e-05
0.778756 -0.000855281 1.80531e-05
0.789036 -0.000183518 3.62983e-06
0.791268 -4.18497e-05 7.45182e-07
0.791785 -1.00502e-05 -4.3812e-07
0.792003 -7.2762e-06 -8.56817e-06
0.795157 -0.000215038 -0.000177442
0 0 0
0 0 0
-0.197179 -0.10318 0.000712122
0.730502 -0.0140117 8.60182e-05
0.788732 -0.00256816 1.83965e-05
0.79904 -0.000551358 3.75354e-06
0.801282 -0.000125814 7.74633e-07
0.801802 -3.01909e-05 -4.39268e-07
0.802009 -2.05051e-05 -8.79217e-06
0.802753 -0.000399583 -0.000189048
0 0 0
0 0 0
0.889826 -0.173468 0.00137125
0.743422 -0.0229093 6.2672e-05
0.789748 -0.00421804 1.67583e-05
0.799309 -0.000909593 3.5631e-06
0.801426 -0.00020789 7.4376e-07
0.801919 -4.98126e-05 -4.50653e-07
0.802103 -3.05778e-05 -8.93705e-06
0.802842 -0.000337946 -0.000192948
0 0 0
0 0 0
-0.181822 -0.245175 0.000560291
0.747347 -0.0304855 5.81701e-05
0.790997 -0.00571595 1.53634e-05
0.799545 -0.00124199 3.24935e-06
0.801477 -0.000284579 6.83514e-07
0.801931 -6.80554e-05 -4.68565e-07
0.802091 -3.72801e-05 -9.04163e-06
0.80286 -0.000278974 -0.000195092
0.484169 -0.0209918 -0.044491
0.995246 -0.00177228 -0.0122322
0.90788 -0.267129 0.00552627
0.764304 -0.0365219 0.000187626
0.792621 -0.0070141 1.46769e-05
0.799847 -0.0015393 2.84928e-06
0.801543 -0.000353868 6.00764e-07
0.801945 -8.44397e-05 -4.91134e-07
0.802083 -4.11655e-05 -9.11653e-06
0.802874 -0.000226282 -0.000196317
0.537842 -0.0563186 -0.0498418
1.01066 -0.00670877 -0.00972438
0.927815 -0.238939 0.0039257
0.77728 -0.0402359 0.0002318
0.794458 -0.00807331 1.32547e-05
0.800204 -0.00179377 2.37245e-06
0.801621 -0.000414002 4.99414e-07
0.801962 -9.8561e-05 -5.174e-07
0.802077 -4.27019e-05 -9.17137e-06
0.802886 -0.000179005 -0.000197038
0.581012 -0.0778023 -0.0568168
1.00339 -0.0124353 -0.00823589
0.926687 -0.211331 0.00218069
0.788155 -0.0421855 0.000157921
0.79642 -0.00887466 1.0351e-05
0.800604 -0.00199929 1.83747e-06
0.801711 -0.000463496 3.84101e-07
0.801982 -0.000110085 -5.46397e-07
0.802074 -4.22706e-05 -9.21184e-06
0.802896 -0.000136102 -0.000197471
0.617945 -0.0854645 -0.064115
0.997811 -0.01667 -0.00748666
0.925337 -0.186009 0.00120188
0.797576 -0.0426987 0.000100628
0.798432 -0.00941157 7.15603e-06
0.801036 -0.00215145 1.2711e-06
0.801808 -0.000501169 2.59071e-07
0.802003 -0.000118752 -5.77256e-07
0.802074 -4.01907e-05 -9.24159e-06
0.802904 -9.65205e-05 -0.00019773
0.648064 -0.0808167 -0.0708004
0.993462 -0.0190683 -0.0071499
0.924147 -0.163009 0.000588476
0.80577 -0.0420594 5.77959e-05
0.800434 -0.0096876 3.98815e-06
0.801486 -0.00224754 6.94938e-07
0.801912 -0.000526166 1.28309e-07
0.802027 -0.000124379 -6.09137e-07
0.802077 -3.67409e-05 -9.2629e-06
0.80291 -5.92337e-05 -0.000197876
0.670931 -0.0660438 -0.0762592
0.989702 -0.019642 -0.00702241
0.923082 -0.142148 0.000195955
0.812865 -0.0404951 2.58554e-05
0.802376 -0.00971351 1.04269e-06
0.801942 -0.00228644 1.26889e-07
0.802019 -0.000537968 -4.48202e-09
0.802052 -0.000126864 -6.41214e-07
0.802081 -3.21777e-05 -9.27702e-06
0.802914 -2.32511e-05 -0.000197944