# vtk DataFile Version 2.0
TestTestTest
ASCII

DATASET STRUCTURED_GRID
DIMENSIONS 11 21 11
POINTS 2541 float
0 0 0
0.5 0 0
1 0 0
1.5 0 0
2 0 0
2.5 0 0
3 0 0
3.5 0 0
4 0 0
4.5 0 0
5 0 0
0 0.05 0
0.5 0.05 0
1 0.05 0
1.5 0.05 0
2 0.05 0
2.5 0.05 0
3 0.05 0
3.5 0.05 0
4 0.05 0
4.5 0.05 0
5 0.05 0
0 0.1 0
0.5 0.1 0
1 0.1 0
1.5 0.1 0
2 0.1 0
2.5 0.1 0
3 0.1 0
3.5 0.1 0
4 0.1 0
4.5 0.1 0
5 0.1 0
0 0.15 0
0.5 0.15 0
1 0.15 0
1.5 0.15 0
2 0.15 0
2.5 0.15 0
3 0.15 0
3.5 0.15 0
4 0.15 0
4.5 0.15 0
5 0.15 0
0 0.2 0
0.5 0.2 0
1 0.2 0
1.5 0.2 0
2 0.2 0
2.5 0.2 0
3 0.2 0
3.5 0.2 0
4 0.2 0
4.5 0.2 0
5 0.2 0
0 0.25 0
0.5 0.25 0
1 0.25 0
1.5 0.25 0
2 0.25 0
2.5 0.25 0
3 0.25 0
3.5 0.25 0
4 0.25 0
4.5 0.25 0
5 0.25 0
0 0.3 0
0.5 0.3 0
1 0.3 0
1.5 0.3 0
2 0.3 0
2.5 0.3 0
3 0.3 0
3.5 0.3 0
4 0.3 0
4.5 0.3 0
5 0.3 0
0 0.35 0
0.5 0.35 0
1 0.35 0
1.5 0.35 0
2 0.35 0
2.5 0.35 0
3 0.35 0
3.5 0.35 0
4 0.35 0
4.5 0.35 0
5 0.35 0
0 0.4 0
0.5 0.4 0
1 0.4 0
1.5 0.4 0
2 0.4 0
2.5 0.4 0
3 0.4 0
3.5 0.4 0
4 0.4 0
4.5 0.4 0
5 0.4 0
0 0.45 0
0.5 0.45 0
1 0.45 0
1.5 0.45 0
2 0.45 0
2.5 0.45 0
3 0.45 0
3.5 0.45 0
4 0.45 0
4.5 0.45 0
5 0.45 0
0 0.5 0
0.5 0.5 0
1 0.5 0
1.5 0.5 0
2 0.5 0
2.5 0.5 0
3 0.5 0
3.5 0.5 0
4 0.5 0
4.5 0.5 0
5 0.5 0
0 0.55 0
0.5 0.55 0
1 0.55 0
1.5 0.55 0
2 0.55 0
2.5 0.55 0
3 0.55 0
3.5 0.55 0
4 0.55 0
4.5 0.55 0
5 0.55 0
0 0.6 0
0.5 0.6 0
1 0.6 0
1.5 0.6 0
2 0.6 0
2.5 0.6 0
3 0.6 0
3.5 0.6 0
4 0.6 0
4.5 0.6 0
5 0.6 0
0 0.65 0
0.5 0.65 0
1 0.65 0
1.5 0.65 0
2 0.65 0
2.5 0.65 0
3 0.65 0
3.5 0.65 0
4 0.65 0
4.5 0.65 0
5 0.65 0
0 0.7 0
0.5 0.7 0
1 0.7 0
1.5 0.7 0
2 0.7 0
2.5 0.7 0
3 0.7 0
3.5 0.7 0
4 0.7 0
4.5 0.7 0
5 0.7 0
0 0.75 0
0.5 0.75 0
1 0.75 0
1.5 0.75 0
2 0.75 0
2.5 0.75 0
3 0.75 0
3.5 0.75 0
4 0.75 0
4.5 0.75 0
5 0.75 0
0 0.8 0
0.5 0.8 0
1 0.8 0
1.5 0.8 0
2 0.8 0
2.5 0.8 0
3 0.8 0
3.5 0.8 0
4 0.8 0
4.5 0.8 0
5 0.8 0
0 0.85 0
0.5 0.85 0
1 0.85 0
1.5 0.85 0
2 0.85 0
2.5 0.85 0
3 0.85 0
3.5 0.85 0
4 0.85 0
4.5 0.85 0
5 0.85 0
0 0.9 0
0.5 0.9 0
1 0.9 0
1.5 0.9 0
2 0.9 0
2.5 0.9 0
3 0.9 0
3.5 0.9 0
4 0.9 0
4.5 0.9 0
5 0.9 0
0 0.95 0
0.5 0.95 0
1 0.95 0
1.5 0.95 0
2 0.95 0
2.5 0.95 0
3 0.95 0
3.5 0.95 0
4 0.95 0
4.5 0.95 0
5 0.95 0
0 1 0
0.5 1 0
1 1 0
1.5 1 0
2 1 0
2.5 1 0
3 1 0
3.5 1 0
4 1 0
4.5 1 0
5 1 0
0 0 0.1
0.5 0 0.1
1 0 0.1
1.5 0 0.1
2 0 0.1
2.5 0 0.1
3 0 0.1
3.5 0 0.1
4 0 0.1
4.5 0 0.1
5 0 0.1
0 0.05 0.1
0.5 0.05 0.1
1 0.05 0.1
1.5 0.05 0.1
2 0.05 0.1
2.5 0.05 0.1
3 0.05 0.1
3.5 0.05 0.1
4 0.05 0.1
4.5 0.05 0.1
5 0.05 0.1
0 0.1 0.1
0.5 0.1 0.1
1 0.1 0.1
1.5 0.1 0.1
2 0.1 0.1
2.5 0.1 0.1
3 0.1 0.1
3.5 0.1 0.1
4 0.1 0.1
4.5 0.1 0.1
5 0.1 0.1
0 0.15 0.1
0.5 0.15 0.1
1 0.15 0.1
1.5 0.15 0.1
2 0.15 0.1
2.5 0.15 0.1
3 0.15 0.1
3.5 0.15 0.1
4 0.15 0.1
4.5 0.15 0.1
5 0.15 0.1
0 0.2 0.1
0.5 0.2 0.1
1 0.2 0.1
1.5 0.2 0.1
2 0.2 0.1
2.5 0.2 0.1
3 0.2 0.1
3.5 0.2 0.1
4 0.2 0.1
4.5 0.2 0.1
5 0.2 0.1
0 0.25 0.1
0.5 0.25 0.1
1 0.25 0.1
1.5 0.25 0.1
2 0.25 0.1
2.5 0.25 0.1
3 0.25 0.1
3.5 0.25 0.1
4 0.25 0.1
4.5 0.25 0.1
5 0.25 0.1
0 0.3 0.1
0.5 0.3 0.1
1 0.3 0.1
1.5 0.3 0.1
2 0.3 0.1
2.5 0.3 0.1
3 0.3 0.1
3.5 0.3 0.1
4 0.3 0.1
4.5 0.3 0.1
5 0.3 0.1
0 0.35 0.1
0.5 0.35 0.1
1 0.35 0.1
1.5 0.35 0.1
2 0.35 0.1
2.5 0.35 0.1
3 0.35 0.1
3.5 0.35 0.1
4 0.35 0.1
4.5 0.35 0.1
5 0.35 0.1
0 0.4 0.1
0.5 0.4 0.1
1 0.4 0.1
1.5 0.4 0.1
2 0.4 0.1
2.5 0.4 0.1
3 0.4 0.1
3.5 0.4 0.1
4 0.4 0.1
4.5 0.4 0.1
5 0.4 0.1
0 0.45 0.1
0.5 0.45 0.1
1 0.45 0.1
1.5 0.45 0.1
2 0.45 0.1
2.5 0.45 0.1
3 0.45 0.1
3.5 0.45 0.1
4 0.45 0.1
4.5 0.45 0.1
5 0.45 0.1
0 0.5 0.1
0.5 0.5 0.1
1 0.5 0.1
1.5 0.5 0.1
2 0.5 0.1
2.5 0.5 0.1
3 0.5 0.1
3.5 0.5 0.1
4 0.5 0.1
4.5 0.5 0.1
5 0.5 0.1
0 0.55 0.1
0.5 0.55 0.1
1 0.55 0.1
1.5 0.55 0.1
2 0.55 0.1
2.5 0.55 0.1
3 0.55 0.1
3.5 0.55 0.1
4 0.55 0.1
4.5 0.55 0.1
5 0.55 0.1
0 0.6 0.1
0.5 0.6 0.1
1 0.6 0.1
1.5 0.6 0.1
2 0.6 0.1
2.5 0.6 0.1
3 0.6 0.1
3.5 0.6 0.1
4 0.6 0.1
4.5 0.6 0.1
5 0.6 0.1
0 0.65 0.1
0.5 0.65 0.1
1 0.65 0.1
1.5 0.65 0.1
2 0.65 0.1
2.5 0.65 0.1
3 0.65 0.1
3.5 0.65 0.1
4 0.65 0.1
4.5 0.65 0.1
5 0.65 0.1
0 0.7 0.1
0.5 0.7 0.1
1 0.7 0.1
1.5 0.7 0.1
2 0.7 0.1
2.5 0.7 0.1
3 0.7 0.1
3.5 0.7 0.1
4 0.7 0.1
4.5 0.7 0.1
5 0.7 0.1
0 0.75 0.1
0.5 0.75 0.1
1 0.75 0.1
1.5 0.75 0.1
2 0.75 0.1
2.5 0.75 0.1
3 0.75 0.1
3.5 0.75 0.1
4 0.75 0.1
4.5 0.75 0.1
5 0.75 0.1
0 0.8 0.1
0.5 0.8 0.1
1 0.8 0.1
1.5 0.8 0.1
2 0.8 0.1
2.5 0.8 0.1
3 0.8 0.1
3.5 0.8 0.1
4 0.8 0.1
4.5 0.8 0.1
5 0.8 0.1
0 0.85 0.1
0.5 0.85 0.1
1 0.85 0.1
1.5 0.85 0.1
2 0.85 0.1
2.5 0.85 0.1
3 0.85 0.1
3.5 0.85 0.1
4 0.85 0.1
4.5 0.85 0.1
5 0.85 0.1
0 0.9 0.1
0.5 0.9 0.1
1 0.9 0.1
1.5 0.9 0.1
2 0.9 0.1
2.5 0.9 0.1
3 0.9 0.1
3.5 0.9 0.1
4 0.9 0.1
4.5 0.9 0.1
5 0.9 0.1
0 0.95 0.1
0.5 0.95 0.1
1 0.95 0.1
1.5 0.95 0.1
2 0.95 0.1
2.5 0.95 0.1
3 0.95 0.1
3.5 0.95 0.1
4 0.95 0.1
4.5 0.95 0.1
5 0.95 0.1
0 1 0.1
0.5 1 0.1
1 1 0.1
1.5 1 0.1
2 1 0.1
2.5 1 0.1
3 1 0.1
3.5 1 0.1
4 1 0.1
4.5 1 0.1
5 1 0.1
0 0 0.2
0.5 0 0.2
1 0 0.2
1.5 0 0.2
2 0 0.2
2.5 0 0.2
3 0 0.2
3.5 0 0.2
4 0 0.2
4.5 0 0.2
5 0 0.2
0 0.05 0.2
0.5 0.05 0.2
1 0.05 0.2
1.5 0.05 0.2
2 0.05 0.2
2.5 0.05 0.2
3 0.05 0.2
3.5 0.05 0.2
4 0.05 0.2
4.5 0.05 0.2
5 0.05 0.2
0 0.1 0.2
0.5 0.1 0.2
1 0.1 0.2
1.5 0.1 0.2
2 0.1 0.2
2.5 0.1 0.2
3 0.1 0.2
3.5 0.1 0.2
4 0.1 0.2
4.5 0.1 0.2
5 0.1 0.2
0 0.15 0.2
0.5 0.15 0.2
1 0.15 0.2
1.5 0.15 0.2
2 0.15 0.2
2.5 0.15 0.2
3 0.15 0.2
3.5 0.15 0.2
4 0.15 0.2
4.5 0.15 0.2
5 0.15 0.2
0 0.2 0.2
0.5 0.2 0.2
1 0.2 0.2
1.5 0.2 0.2
2 0.2 0.2
2.5 0.2 0.2
3 0.2 0.2
3.5 0.2 0.2
4 0.2 0.2
4.5 0.2 0.2
5 0.2 0.2
0 0.25 0.2
0.5 0.25 0.2
1 0.25 0.2
1.5 0.25 0.2
2 0.25 0.2
2.5 0.25 0.2
3 0.25 0.2
3.5 0.25 0.2
4 0.25 0.2
4.5 0.25 0.2
5 0.25 0.2
0 0.3 0.2
0.5 0.3 0.2
1 0.3 0.2
1.5 0.3 0.2
2 0.3 0.2
2.5 0.3 0.2
3 0.3 0.2
3.5 0.3 0.2
4 0.3 0.2
4.5 0.3 0.2
5 0.3 0.2
0 0.35 0.2
0.5 0.35 0.2
1 0.35 0.2
1.5 0.35 0.2
2 0.35 0.2
2.5 0.35 0.2
3 0.35 0.2
3.5 0.35 0.2
4 0.35 0.2
4.5 0.35 0.2
5 0.35 0.2
0 0.4 0.2
0.5 0.4 0.2
1 0.4 0.2
1.5 0.4 0.2
2 0.4 0.2
2.5 0.4 0.2
3 0.4 0.2
3.5 0.4 0.2
4 0.4 0.2
4.5 0.4 0.2
5 0.4 0.2
0 0.45 0.2
0.5 0.45 0.2
1 0.45 0.2
1.5 0.45 0.2
2 0.45 0.2
2.5 0.45 0.2
3 0.45 0.2
3.5 0.45 0.2
4 0.45 0.2
4.5 0.45 0.2
5 0.45 0.2
0 0.5 0.2
0.5 0.5 0.2
1 0.5 0.2
1.5 0.5 0.2
2 0.5 0.2
2.5 0.5 0.2
3 0.5 0.2
3.5 0.5 0.2
4 0.5 0.2
4.5 0.5 0.2
5 0.5 0.2
0 0.55 0.2
0.5 0.55 0.2
1 0.55 0.2
1.5 0.55 0.2
2 0.55 0.2
2.5 0.55 0.2
3 0.55 0.2
3.5 0.55 0.2
4 0.55 0.2
4.5 0.55 0.2
5 0.55 0.2
0 0.6 0.2
0.5 0.6 0.2
1 0.6 0.2
1.5 0.6 0.2
2 0.6 0.2
2.5 0.6 0.2
3 0.6 0.2
3.5 0.6 0.2
4 0.6 0.2
4.5 0.6 0.2
5 0.6 0.2
0 0.65 0.2
0.5 0.65 0.2
1 0.65 0.2
1.5 0.65 0.2
2 0.65 0.2
2.5 0.65 0.2
3 0.65 0.2
3.5 0.65 0.2
4 0.65 0.2
4.5 0.65 0.2
5 0.65 0.2
0 0.7 0.2
0.5 0.7 0.2
1 0.7 0.2
1.5 0.7 0.2
2 0.7 0.2
2.5 0.7 0.2
3 0.7 0.2
3.5 0.7 0.2
4 0.7 0.2
4.5 0.7 0.2
5 0.7 0.2
0 0.75 0.2
0.5 0.75 0.2
1 0.75 0.2
1.5 0.75 0.2
2 0.75 0.2
2.5 0.75 0.2
3 0.75 0.2
3.5 0.75 0.2
4 0.75 0.2
4.5 0.75 0.2
5 0.75 0.2
0 0.8 0.2
0.5 0.8 0.2
1 0.8 0.2
1.5 0.8 0.2
2 0.8 0.2
2.5 0.8 0.2
3 0.8 0.2
3.5 0.8 0.2
4 0.8 0.2
4.5 0.8 0.2
5 0.8 0.2
0 0.85 0.2
0.5 0.85 0.2
1 0.85 0.2
1.5 0.85 0.2
2 0.85 0.2
2.5 0.85 0.2
3 0.85 0.2
3.5 0.85 0.2
4 0.85 0.2
4.5 0.85 0.2
5 0.85 0.2
0 0.9 0.2
0.5 0.9 0.2
1 0.9 0.2
1.5 0.9 0.2
2 0.9 0.2
2.5 0.9 0.2
3 0.9 0.2
3.5 0.9 0.2
4 0.9 0.2
4.5 0.9 0.2
5 0.9 0.2
0 0.95 0.2
0.5 0.95 0.2
1 0.95 0.2
1.5 0.95 0.2
2 0.95 0.2
2.5 0.95 0.2
3 0.95 0.2
3.5 0.95 0.2
4 0.95 0.2
4.5 0.95 0.2
5 0.95 0.2
0 1 0.2
0.5 1 0.2
1 1 0.2
1.5 1 0.2
2 1 0.2
2.5 1 0.2
3 1 0.2
3.5 1 0.2
4 1 0.2
4.5 1 0.2
5 1 0.2
0 0 0.3
0.5 0 0.3
1 0 0.3
1.5 0 0.3
2 0 0.3
2.5 0 0.3
3 0 0.3
3.5 0 0.3
4 0 0.3
4.5 0 0.3
5 0 0.3
0 0.05 0.3
0.5 0.05 0.3
1 0.05 0.3
1.5 0.05 0.3
2 0.05 0.3
2.5 0.05 0.3
3 0.05 0.3
3.5 0.05 0.3
4 0.05 0.3
4.5 0.05 0.3
5 0.05 0.3
0 0.1 0.3
0.5 0.1 0.3
1 0.1 0.3
1.5 0.1 0.3
2 0.1 0.3
2.5 0.1 0.3
3 0.1 0.3
3.5 0.1 0.3
4 0.1 0.3
4.5 0.1 0.3
5 0.1 0.3
0 0.15 0.3
0.5 0.15 0.3
1 0.15 0.3
1.5 0.15 0.3
2 0.15 0.3
2.5 0.15 0.3
3 0.15 0.3
3.5 0.15 0.3
4 0.15 0.3
4.5 0.15 0.3
5 0.15 0.3
0 0.2 0.3
0.5 0.2 0.3
1 0.2 0.3
1.5 0.2 0.3
2 0.2 0.3
2.5 0.2 0.3
3 0.2 0.3
3.5 0.2 0.3
4 0.2 0.3
4.5 0.2 0.3
5 0.2 0.3
0 0.25 0.3
0.5 0.25 0.3
1 0.25 0.3
1.5 0.25 0.3
2 0.25 0.3
2.5 0.25 0.3
3 0.25 0.3
3.5 0.25 0.3
4 0.25 0.3
4.5 0.25 0.3
5 0.25 0.3
0 0.3 0.3
0.5 0.3 0.3
1 0.3 0.3
1.5 0.3 0.3
2 0.3 0.3
2.5 0.3 0.3
3 0.3 0.3
3.5 0.3 0.3
4 0.3 0.3
4.5 0.3 0.3
5 0.3 0.3
0 0.35 0.3
0.5 0.35 0.3
1 0.35 0.3
1.5 0.35 0.3
2 0.35 0.3
2.5 0.35 0.3
3 0.35 0.3
3.5 0.35 0.3
4 0.35 0.3
4.5 0.35 0.3
5 0.35 0.3
0 0.4 0.3
0.5 0.4 0.3
1 0.4 0.3
1.5 0.4 0.3
2 0.4 0.3
2.5 0.4 0.3
3 0.4 0.3
3.5 0.4 0.3
4 0.4 0.3
4.5 0.4 0.3
5 0.4 0.3
0 0.45 0.3
0.5 0.45 0.3
1 0.45 0.3
1.5 0.45 0.3
2 0.45 0.3
2.5 0.45 0.3
3 0.45 0.3
3.5 0.45 0.3
4 0.45 0.3
4.5 0.45 0.3
5 0.45 0.3
0 0.5 0.3
0.5 0.5 0.3
1 0.5 0.3
1.5 0.5 0.3
2 0.5 0.3
2.5 0.5 0.3
3 0.5 0.3
3.5 0.5 0.3
4 0.5 0.3
4.5 0.5 0.3
5 0.5 0.3
0 0.55 0.3
0.5 0.55 0.3
1 0.55 0.3
1.5 0.55 0.3
2 0.55 0.3
2.5 0.55 0.3
3 0.55 0.3
3.5 0.55 0.3
4 0.55 0.3
4.5 0.55 0.3
5 0.55 0.3
0 0.6 0.3
0.5 0.6 0.3
1 0.6 0.3
1.5 0.6 0.3
2 0.6 0.3
2.5 0.6 0.3
3 0.6 0.3
3.5 0.6 0.3
4 0.6 0.3
4.5 0.6 0.3
5 0.6 0.3
0 0.65 0.3
0.5 0.65 0.3
1 0.65 0.3
1.5 0.65 0.3
2 0.65 0.3
2.5 0.65 0.3
3 0.65 0.3
3.5 0.65 0.3
4 0.65 0.3
4.5 0.65 0.3
5 0.65 0.3
0 0.7 0.3
0.5 0.7 0.3
1 0.7 0.3
1.5 0.7 0.3
2 0.7 0.3
2.5 0.7 0.3
3 0.7 0.3
3.5 0.7 0.3
4 0.7 0.3
4.5 0.7 0.3
5 0.7 0.3
0 0.75 0.3
0.5 0.75 0.3
1 0.75 0.3
1.5 0.75 0.3
2 0.75 0.3
2.5 0.75 0.3
3 0.75 0.3
3.5 0.75 0.3
4 0.75 0.3
4.5 0.75 0.3
5 0.75 0.3
0 0.8 0.3
0.5 0.8 0.3
1 0.8 0.3
1.5 0.8 0.3
2 0.8 0.3
2.5 0.8 0.3
3 0.8 0.3
3.5 0.8 0.3
4 0.8 0.3
4.5 0.8 0.3
5 0.8 0.3
0 0.85 0.3
0.5 0.85 0.3
1 0.85 0.3
1.5 0.85 0.3
2 0.85 0.3
2.5 0.85 0.3
3 0.85 0.3
3.5 0.85 0.3
4 0.85 0.3
4.5 0.85 0.3
5 0.85 0.3
0 0.9 0.3
0.5 0.9 0.3
1 0.9 0.3
1.5 0.9 0.3
2 0.9 0.3
2.5 0.9 0.3
3 0.9 0.3
3.5 0.9 0.3
4 0.9 0.3
4.5 0.9 0.3
5 0.9 0.3
0 0.95 0.3
0.5 0.95 0.3
1 0.95 0.3
1.5 0.95 0.3
2 0.95 0.3
2.5 0.95 0.3
3 0.95 0.3
3.5 0.95 0.3
4 0.95 0.3
4.5 0.95 0.3
5 0.95 0.3
0 1 0.3
0.5 1 0.3
1 1 0.3
1.5 1 0.3
2 1 0.3
2.5 1 0.3
3 1 0.3
3.5 1 0.3
4 1 0.3
4.5 1 0.3
5 1 0.3
0 0 0.4
[...]
CELL_DATA 2000
SCALARS pressure float 1
LOOKUP_TABLE default
0
0
0.846021
0.91449
0.747649
0.599616
0.457435
0.316812
0.175925
0.0233419
0
0
0.842844
0.90785
0.747052
0.599489
0.457405
0.316807
0.175911
0.0251419
0
0
0.812727
0.904014
0.746116
0.599285
0.457357
0.316801
0.175966
0.0270812
0
0
0.799048
0.895198
0.74489
0.599014
0.457293
0.316792
0.176065
0.0287727
1.2252
1.36375
0.800746
0.886566
0.743398
0.598688
0.457215
0.316781
0.176177
0.0301437
1.22359
1.36452
0.815259
0.878398
0.741756
0.598322
0.457126
0.316768
0.176288
0.0312291
1.21843
1.36375
0.834788
0.871635
0.740073
0.597928
0.457028
0.316752
0.176386
0.032061
1.21039
1.36071
0.859933
0.866523
0.738432
0.597517
0.456923
0.316733
0.176463
0.0326639
1.20187
1.35551
0.885742
0.862991
0.7369
0.597101
0.456814
0.31671
0.176515
0.0330558
1.19446
1.34928
0.909669
0.860671
0.735506
0.596688
0.456703
0.316684
0.176538
0.0332482
1.18873
1.34282
0.931127
0.859242
0.734252
0.596285
0.456591
0.316654
0.17653
0.0332469
1.185
1.33671
0.949944
0.858447
0.733133
0.595899
0.456481
0.316622
0.176493
0.0330519
1.18365
1.33129
0.96609
0.858069
0.732138
0.595534
0.456375
0.316588
0.176427
0.0326575
1.18469
1.32674
0.979625
0.857928
0.731255
0.595195
0.456276
0.316554
0.176336
0.0320521
1.18802
1.3231
0.990645
0.857877
0.730472
0.594885
0.456183
0.31652
0.176225
0.031218
1.1935
1.32034
0.999268
0.857801
0.729777
0.594607
0.4561
0.316489
0.176103
0.0301305
1.20066
1.31834
1.00562
0.857611
0.729159
0.594364
0.456028
0.316461
0.175981
0.0287577
1.20795
1.31686
1.00987
0.857264
0.728617
0.594158
0.455967
0.316437
0.175875
0.0270647
1.21281
1.31592
1.01221
0.856798
0.728175
0.594001
0.455923
0.316421
0.175814
0.0251243
1.2144
1.31562
1.01256
0.856254
0.727867
0.593901
0.455895
0.316412
0.175825
0.0233237
0
0
0.854814
0.913379
0.7478
0.599605
0.45743
0.316823
0.176088
0.0270456
0
0
0.849586
0.907142
0.746906
0.599444
0.457395
0.316815
0.175993
0.0299856
0
0
0.819806
0.903231
0.745875
0.59922
0.457343
0.316805
0.176099
0.0322678
0
0
0.822876
0.896819
0.744567
0.598945
0.457279
0.316797
0.176232
0.0339762
1.21302
1.35921
0.780284
0.887289
0.743059
0.598624
0.457202
0.316788
0.176363
0.0353591
1.211
1.37618
0.787184
0.876904
0.741412
0.598268
0.457115
0.316776
0.176484
0.0364552
1.20711
1.3762
0.814114
0.869232
0.739753
0.597886
0.45702
0.316762
0.176589
0.0372957
1.20187
1.36887
0.843994
0.864411
0.738181
0.597487
0.456918
0.316743
0.17667
0.0379051
1.19604
1.35968
0.873281
0.861332
0.736727
0.597082
0.456811
0.316722
0.176724
0.0383011
1.19042
1.34997
0.900631
0.8594
0.735397
0.59668
0.456702
0.316696
0.176748
0.0384955
1.1861
1.3406
0.924755
0.858314
0.734196
0.596288
0.456593
0.316667
0.17674
0.0384942
1.18318
1.33241
0.945509
0.857805
0.733121
0.595912
0.456486
0.316636
0.176702
0.0382973
1.18165
1.3259
0.963101
0.857658
0.732165
0.595557
0.456383
0.316602
0.176634
0.0378988
1.18155
1.32119
0.977726
0.857701
0.731316
0.595227
0.456285
0.316567
0.176539
0.0372871
1.18323
1.31811
0.989544
0.857795
0.730563
0.594926
0.456195
0.316533
0.176423
0.0364443
1.18677
1.31619
0.998702
0.857834
0.729892
0.594655
0.456113
0.316501
0.17629
0.0353463
1.19121
1.31484
1.00536
0.857741
0.729295
0.594416
0.456042
0.316472
0.17615
0.0339616
1.19585
1.31372
1.00969
0.857458
0.728767
0.594213
0.455982
0.316449
0.176009
0.0322518
1.19979
1.31321
1.01203
0.856956
0.728298
0.594044
0.455935
0.316433
0.175897
0.0299684
1.20253
1.31439
1.01232
0.856258
0.727922
0.593924
0.455903
0.316425
0.175988
0.0270277
0
0
0.865249
0.915141
0.7481
0.599599
0.457423
0.316844
0.176367
0.0300792
0
0
0.859432
0.909616
0.747143
0.599424
0.457386
0.316836
0.176284
0.03328
0
0
0.833627
0.90656
0.7461
0.599188
0.457331
0.316827
0.176419
0.0357399
0
0
0.838765
0.901506
0.74484
0.598913
0.457267
0.316821
0.176575
0.0375342
1.19982
1.34877
0.774499
0.892244
0.743376
0.598597
0.457192
0.316814
0.176724
0.0389669
1.19796
1.38192
0.758513
0.880129
0.741709
0.598242
0.457106
0.316804
0.176857
0.0400957
1.19726
1.39278
0.781163
0.869746
0.739937
0.597863
0.457013
0.316791
0.17697
0.0409575
1.19999
1.38643
0.81936
0.862833
0.738215
0.597468
0.456913
0.316774
0.177057
0.0415804
1.20479
1.37012
0.855934
0.859055
0.736658
0.597068
0.456809
0.316753
0.177114
0.0419845
1.20959
1.3515
0.887648
0.857294
0.735297
0.596673
0.456703
0.316729
0.177139
0.0421828
1.21296
1.33509
0.915289
0.856624
0.734108
0.596288
0.456597
0.3167
0.177132
0.0421815
1.21382
1.32251
0.939056
0.856541
0.733064
0.595921
0.456492
0.316669
0.177093
0.0419808
1.21216
1.31392
0.959083
0.856765
0.732142
0.595575
0.456392
0.316636
0.177022
0.0415743
1.20793
1.3091
0.975644
0.85712
0.731327
0.595254
0.456296
0.316601
0.176922
0.0409491
1.20149
1.30759
0.988955
0.857478
0.730606
0.59496
0.456208
0.316566
0.176797
0.0400852
1.19431
1.30844
0.999015
0.857733
0.729965
0.594696
0.456128
0.316533
0.176653
0.0389545
1.18822
1.31002
1.0059
0.857795
0.729398
0.594464
0.456058
0.316503
0.176495
0.0375201
1.18544
1.31105
1.01008
0.857588
0.728887
0.594264
0.455999
0.316478
0.176331
0.0357243
1.18664
1.31185
1.01231
0.857086
0.728407
0.594088
0.455949
0.31646
0.176189
0.0332631
1.18935
1.31388
1.01267
0.856356
0.728006
0.59396
0.455915
0.316451
0.176268
0.0300615
0
0
0.871164
0.917313
0.748401
0.599605
0.45742
0.316865
0.176617
0.0320109
0
0
0.865904
0.912063
0.747443
0.599427
0.457382
0.316858
0.17654
0.0352684
0
0
0.840634
0.909589
0.746425
0.59919
0.457327
0.316851
0.176686
0.0377827
0
0
0.84309
0.905143
0.74522
0.598919
0.457263
0.316846
0.176853
0.0396183
1.19296
1.35157
0.774692
0.896119
0.743809
0.598608
0.457189
0.31684
0.177011
0.0410814
1.19233
1.38833
0.747134
0.883593
0.742166
0.59826
0.457105
0.316832
0.177152
0.0422324
1.19548
1.40389
0.755205
0.871603
0.740339
0.597882
0.457012
0.31682
0.17727
0.0431103
1.2064
1.39956
0.788792
0.862611
0.73848
0.597484
0.456914
0.316804
0.177361
0.0437443
1.2239
1.37986
0.832409
0.857501
0.736761
0.597079
0.456811
0.316784
0.177421
0.0441552
1.24273
1.35376
0.872656
0.855287
0.735271
0.596679
0.456706
0.31676
0.177448
0.0443566
1.25702
1.32863
0.905688
0.854659
0.734007
0.596292
0.456601
0.316732
0.177441
0.0443554
1.26349
1.30909
0.93301
0.854837
0.732933
0.595925
0.456498
0.316701
0.1774
0.0441516
1.26173
1.29725
0.955995
0.855411
0.732009
0.59558
0.456398
0.316668
0.177326
0.0437383
1.25158
1.29294
0.97473
0.856148
0.731214
0.595261
0.456304
0.316633
0.177223
0.0431021
1.23381
1.2943
0.989052
0.856869
0.730533
0.594973
0.456217
0.316597
0.177092
0.0422222
1.21236
1.29869
0.999333
0.857412
0.729942
0.594715
0.456138
0.316563
0.17694
0.0410692
1.19378
1.30396
1.00625
0.85766
0.729411
0.594487
0.456069
0.316532
0.176773
0.0396044
1.18311
1.30825
1.01044
0.857547
0.728918
0.594289
0.456009
0.316505
0.176598
0.0377674
1.18071
1.31091
1.01265
0.857087
0.728446
0.594112
0.455959
0.316486
0.176446
0.0352518
1.18227
1.31369
1.01311
0.856376
0.728045
0.593983
0.455924
0.316476
0.176519
0.0319935
0
0
0.873101
0.918581
0.748586
0.599611
0.457418
0.316879
0.176759
0.0329399
0
0
0.86782
0.913443
0.747632
0.599433
0.45738
0.316872
0.176683
0.0362113
0
0
0.842122
0.911222
0.746629
0.599197
0.457326
0.316866
0.176832
0.0387439
0
0
0.843592
0.907032
0.745451
0.598928
0.457262
0.316862
0.177004
0.040596
1.19056
1.35552
0.774063
0.898103
0.744067
0.59862
0.457188
0.316856
0.177166
0.0420724
1.19082
1.39324
0.744135
0.88545
0.742442
0.598275
0.457105
0.316848
0.17731
0.043234
1.19696
1.40943
0.747224
0.873106
0.74061
0.5979
0.457013
0.316837
0.177431
0.0441197
1.21366
1.40513
0.773763
0.86333
0.738708
0.597503
0.456916
0.316822
0.177524
0.0447592
1.23894
1.38432
0.81373
0.857004
0.736895
0.597095
0.456813
0.316802
0.177585
0.0451738
1.26634
1.35501
0.857582
0.853875
0.735285
0.596687
0.456708
0.316778
0.177613
0.0453771
1.2883
1.32545
0.897793
0.853025
0.733923
0.596292
0.456603
0.316751
0.177606
0.0453759
1.29876
1.30152
0.930667
0.853437
0.732794
0.595919
0.4565
0.31672
0.177564
0.0451702
1.29672
1.28711
0.955949
0.8544
0.731868
0.595574
0.456401
0.316686
0.17749
0.0447533
1.28217
1.28269
0.974971
0.855488
0.731107
0.595259
0.456308
0.316651
0.177384
0.0441116
1.25663
1.28557
0.989151
0.856462
0.730466
0.594976
0.456221
0.316615
0.177251
0.0432238
1.22675
1.29245
0.999442
0.857178
0.729907
0.594721
0.456143
0.316581
0.177096
0.0420603
1.20054
1.30022
1.00642
0.857535
0.729399
0.594496
0.456074
0.316549
0.176925
0.0405822
1.18425
1.3065
1.01063
0.857483
0.728919
0.594299
0.456015
0.316522
0.176745
0.0387287
1.17902
1.31036
1.01285
0.857055
0.728453
0.594123
0.455964
0.316502
0.17659
0.0361949
1.17973
1.31363
1.01337
0.856362
0.728055
0.593994
0.455929
0.316492
0.176662
0.0329227
0
0
0.873101
0.918581
0.748586
0.599611
0.457418
0.316879
0.176759
0.0329399
0
0
0.86782
0.913443
0.747632
0.599433
0.45738
0.316872
0.176683
0.0362113
0
0
0.842122
0.911222
0.746629
0.599197
0.457326
0.316866
0.176832
0.0387439
0
0
0.843592
0.907032
0.745451
0.598928
0.457262
0.316862
0.177004
0.040596
1.19056
1.35552
0.774063
0.898103
0.744067
0.59862
0.457188
0.316856
0.177166
0.0420724
1.19082
1.39324
0.744135
0.88545
0.742442
0.598275
0.457105
0.316848
0.17731
0.043234
1.19696
1.40943
0.747224
0.873106
0.74061
0.5979
0.457013
0.316837
0.177431
0.0441197
1.21366
1.40513
0.773763
0.86333
0.738708
0.597503
0.456916
0.316822
0.177524
0.0447592
1.23894
1.38432
0.81373
0.857004
0.736895
0.597095
0.456813
0.316802
0.177585
0.0451738
1.26634
1.35501
0.857582
0.853875
0.735285
0.596687
0.456708
0.316778
0.177613
0.0453771
1.2883
1.32545
0.897793
0.853025
0.733923
0.596292
0.456603
0.316751
0.177606
0.0453759
1.29876
1.30152
0.930667
0.853437
0.732794
0.595919
0.4565
0.31672
0.177564
0.0451702
1.29672
1.28711
0.955949
0.8544
0.731868
0.595574
0.456401
0.316686
0.17749
0.0447533
1.28217
1.28269
0.974971
0.855488
0.731107
0.595259
0.456308
0.316651
0.177384
0.0441116
1.25663
1.28557
0.989151
0.856462
0.730466
0.594976
0.456221
0.316615
0.177251
0.0432238
1.22675
1.29245
0.999442
0.857178
0.729907
0.594721
0.456143
0.316581
0.177096
0.0420603
1.20054
1.30022
1.00642
0.857535
0.729399
0.594496
0.456074
0.316549
0.176925
0.0405822
1.18425
1.3065
1.01063
0.857483
0.728919
0.594299
0.456015
0.316522
0.176745
0.0387287
1.17902
1.31036
1.01285
0.857055
0.728453
0.594123
0.455964
0.316502
0.17659
0.0361949
1.17973
1.31363
1.01337
0.856362
0.728055
0.593994
0.455929
0.316492
0.176662
0.0329227
0
0
0.871164
0.917313
0.748401
0.599605
0.45742
0.316865
0.176617
0.0320109
0
0
0.865904
0.912063
0.747443
0.599427
0.457382
0.316858
0.17654
0.0352684
0
0
0.840634
0.909589
0.746425
0.59919
0.457327
0.316851
0.176686
0.0377827
0
0
0.84309
0.905143
0.74522
0.598919
0.457263
0.316846
0.176853
0.0396183
1.19296
1.35157
0.774692
0.896119
0.743809
0.598608
0.457189
0.31684
0.177011
0.0410814
1.19233
1.38833
0.747134
0.883593
0.742166
0.59826
0.457105
0.316832
0.177152
0.0422324
1.19548
1.40389
0.755205
0.871603
0.740339
0.597882
0.457012
0.31682
0.17727
0.0431103
1.2064
1.39956
0.788792
0.862611
0.73848
0.597484
0.456914
0.316804
0.177361
0.0437443
1.2239
1.37986
0.832409
0.857501
0.736761
0.597079
0.456811
0.316784
0.177421
0.0441552
1.24273
1.35376
0.872656
0.855287
0.735271
0.596679
0.456706
0.31676
0.177448
0.0443566
1.25702
1.32863
0.905688
0.854659
0.734007
0.596292
0.456601
0.316732
0.177441
0.0443554
1.26349
1.30909
0.93301
0.854837
0.732933
0.595925
0.456498
0.316701
0.1774
0.0441516
1.26173
1.29725
0.955995
0.855411
0.732009
0.59558
0.456398
0.316668
0.177326
0.0437383
1.25158
1.29294
0.97473
0.856148
0.731214
0.595261
0.456304
0.316633
0.177223
0.0431021
1.23381
1.2943
0.989052
0.856869
0.730533
0.594973
0.456217
0.316597
0.177092
0.0422222
1.21236
1.29869
0.999333
0.857412
0.729942
0.594715
0.456138
0.316563
0.17694
0.0410692
1.19378
1.30396
1.00625
0.85766
0.729411
0.594487
0.456069
0.316532
0.176773
0.0396044
1.18311
1.30825
1.01044
0.857547
0.728918
0.594289
0.456009
0.316505
0.176598
0.0377674
1.18071
1.31091
1.01265
0.857087
0.728446
0.594112
0.455959
0.316486
0.176446
0.0352518
1.18227
1.31369
1.01311
0.856376
0.728045
0.593983
0.455924
0.316476
0.176519
0.0319935
0
0
0.865249
0.915141
0.7481
0.599599
0.457423
0.316844
0.176367
0.0300792
0
0
0.859432
0.909616
0.747143
0.599424
0.457386
0.316836
0.176284
0.03328
0
0
0.833627
0.90656
0.7461
0.599188
0.457331
0.316827
0.176419
0.0357399
0
0
0.838765
0.901506
0.74484
0.598913
0.457267
0.316821
0.176575
0.0375342
1.19982
1.34877
0.774499
0.892244
0.743376
0.598597
0.457192
0.316814
0.176724
0.0389669
1.19796
1.38192
0.758513
0.880129
0.741709
0.598242
0.457106
0.316804
0.176857
0.0400957
1.19726
1.39278
0.781163
0.869746
0.739937
0.597863
0.457013
0.316791
0.17697
0.0409575
1.19999
1.38643
0.81936
0.862833
0.738215
0.597468
0.456913
0.316774
0.177057
0.0415804
1.20479
1.37012
0.855934
0.859055
0.736658
0.597068
0.456809
0.316753
0.177114
0.0419845
1.20959
1.3515
0.887648
0.857294
0.735297
0.596673
0.456703
0.316729
0.177139
0.0421828
1.21296
1.33509
0.915289
0.856624
0.734108
0.596288
0.456597
0.3167
0.177132
0.0421815
1.21382
1.32251
0.939056
0.856541
0.733064
0.595921
0.456492
0.316669
0.177093
0.0419808
1.21216
1.31392
0.959083
0.856765
0.732142
0.595575
0.456392
0.316636
0.177022
0.0415743
1.20793
1.3091
0.975644
0.85712
0.731327
0.595254
0.456296
0.316601
0.176922
0.0409491
1.20149
1.30759
0.988955
0.857478
0.730606
0.59496
0.456208
0.316566
0.176797
0.0400852
1.19431
1.30844
0.999015
0.857733
0.729965
0.594696
0.456128
0.316533
0.176653
0.0389545
1.18822
1.31002
1.0059
0.857795
0.729398
0.594464
0.456058
0.316503
0.176495
0.0375201
1.18544
1.31105
1.01008
0.857588
0.728887
0.594264
0.455999
0.316478
0.176331
0.0357243
1.18664
1.31185
1.01231
0.857086
0.728407
0.594088
0.455949
0.31646
0.176189
0.0332631
1.18935
1.31388
1.01267
0.856356
0.728006
0.59396
0.455915
0.316451
0.176268
0.0300615
0
0
0.854814
0.913379
0.7478
0.599605
0.45743
0.316823
0.176088
0.0270456
0
0
0.849586
0.907142
0.746906
0.599444
0.457395
0.316815
0.175993
0.0299856
0
0
0.819806
0.903231
0.745875
0.59922
0.457343
0.316805
0.176099
0.0322678
0
0
0.822876
0.896819
0.744567
0.598945
0.457279
0.316797
0.176232
0.0339762
1.21302
1.35921
0.780284
0.887289
0.743059
0.598624
0.457202
0.316788
0.176363
0.0353591
1.211
1.37618
0.787184
0.876904
0.741412
0.598268
0.457115
0.316776
0.176484
0.0364552
1.20711
1.3762
0.814114
0.869232
0.739753
0.597886
0.45702
0.316762
0.176589
0.0372957
1.20187
1.36887
0.843994
0.864411
0.738181
0.597487
0.456918
0.316743
0.17667
0.0379051
1.19604
1.35968
0.873281
0.861332
0.736727
0.597082
0.456811
0.316722
0.176724
0.0383011
1.19042
1.34997
0.900631
0.8594
0.735397
0.59668
0.456702
0.316696
0.176748
0.0384955
1.1861
1.3406
0.924755
0.858314
0.734196
0.596288
0.456593
0.316667
0.17674
0.0384942
1.18318
1.33241
0.945509
0.857805
0.733121
0.595912
0.456486
0.316636
0.176702
0.0382973
1.18165
1.3259
0.963101
0.857658
0.732165
0.595557
0.456383
0.316602
0.176634
0.0378988
1.18155
1.32119
0.977726
0.857701
0.731316
0.595227
0.456285
0.316567
0.176539
0.0372871
1.18323
1.31811
0.989544
0.857795
0.730563
0.594926
0.456195
0.316533
0.176423
0.0364443
1.18677
1.31619
0.998702
0.857834
0.729892
0.594655
0.456113
0.316501
0.17629
0.0353463
1.19121
1.31484
1.00536
0.857741
0.729295
0.594416
0.456042
0.316472
0.17615
0.0339616
1.19585
1.31372
1.00969
0.857458
0.728767
0.594213
0.455982
0.316449
0.176009
0.0322518
1.19979
1.31321
1.01203
0.856956
0.728298
0.594044
0.455935
0.316433
0.175897
0.0299684
1.20253
1.31439
1.01232
0.856258
0.727922
0.593924
0.455903
0.316425
0.175988
0.0270277
0
0
0.846021
0.91449
0.747649
0.599616
0.457435
0.316812
0.175925
0.0233419
0
0
0.842844
0.90785
0.747052
0.599489
0.457405
0.316807
0.175911
0.0251419
0
0
0.812727
0.904014
0.746116
0.599285
0.457357
0.316801
0.175966
0.0270812
0
0
0.799048
0.895198
0.74489
0.599014
0.457293
0.316792
0.176065
0.0287727
1.2252
1.36375
0.800746
0.886566
0.743398
0.598688
0.457215
0.316781
0.176177
0.0301437
1.22359
1.36452
0.815259
0.878398
0.741756
0.598322
0.457126
0.316768
0.176288
0.0312291
1.21843
1.36375
0.834788
0.871635
0.740073
0.597928
0.457028
0.316752
0.176386
0.032061
1.21039
1.36071
0.859933
0.866523
0.738432
0.597517
0.456923
0.316733
0.176463
0.0326639
1.20187
1.35551
0.885742
0.862991
0.7369
0.597101
0.456814
0.31671
0.176515
0.0330558
1.19446
1.34928
0.909669
0.860671
0.735506
0.596688
0.456703
0.316684
0.176538
0.0332482
1.18873
1.34282
0.931127
0.859242
0.734252
0.596285
0.456591
0.316654
0.17653
0.0332469
1.185
1.33671
0.949944
0.858447
0.733133
0.595899
0.456481
0.316622
0.176493
0.0330519
1.18365
1.33129
0.96609
0.858069
0.732138
0.595534
0.456375
0.316588
0.176427
0.0326575
1.18469
1.32674
0.979625
0.857928
0.731255
0.595195
0.456276
0.316554
0.176336
0.0320521
1.18802
1.3231
0.990645
0.857877
0.730472
0.594885
0.456183
0.31652
0.176225
0.031218
1.1935
1.32034
0.999268
0.857801
0.729777
0.594607
0.4561
0.316489
0.176103
0.0301305
1.20066
1.31834
1.00562
0.857611
0.729159
0.594364
0.456028
0.316461
0.175981
0.0287577
1.20795
1.31686
1.00987
0.857264
0.728617
0.594158
0.455967
0.316437
0.175875
0.0270647
1.21281
1.31592
1.01221
0.856798
0.728175
0.594001
0.455923
0.316421
0.175814
0.0251243
1.2144
1.31562
1.01256
0.856254
0.727867
0.593901
0.455895
0.316412
0.175825
0.0233237

VECTORS velocity float
0 0 0
0 0 0
0.670699 -0.0281658 -0.0045936
0.621951 -0.0017642 0.00100695
0.639118 -0.000525216 0.000138531
0.644728 -0.000121909 3.36538e-05
0.646007 -2.67503e-05 7.94693e-06
0.646333 -8.06251e-06 -3.57108e-06
0.64659 1.10312e-05 -5.3812e-05
0.676881 -0.00205199 -0.00192244
0 0 0
0 0 0
-0.0749582 -0.0835126 -0.0038232
0.648622 -0.0106067 0.000820863
0.7244 -0.00207801 0.000235312
0.735154 -0.0004374 5.61141e-05
0.737156 -9.44751e-05 1.26256e-05
0.737629 -2.74052e-05 -2.56732e-06
0.738528 -3.11978e-05 -4.81473e-05
0.753235 -0.00423531 -0.00252409
0 0 0
0 0 0
0.696473 -0.142632 -0.00224096
0.69584 -0.021454 0.000625833
0.738537 -0.00402283 0.000207331
0.748373 -0.000829278 5.65536e-05
0.750438 -0.000178581 1.32321e-05
0.750931 -5.01025e-05 -2.70053e-06
0.751792 -0.000128235 -5.90597e-05
0.762723 -0.00406604 -0.00264076
0 0 0
0 0 0
-0.0609613 -0.204801 -0.000482114
0.670248 -0.0312188 -0.000147807
0.739883 -0.00591574 0.000163795
0.750479 -0.00121998 5.30554e-05
0.752487 -0.000262937 1.26251e-05
0.752955 -7.18536e-05 -3.14482e-06
0.753645 -0.0001942 -6.97609e-05
0.764166 -0.00342211 -0.00267671
0.357198 -0.0148051 -0.0314792
0.696955 0.00871421 -0.0243448
0.69748 -0.237364 0.0114231
0.699418 -0.041396 0.00121512
0.742338 -0.00772179 0.000224439
0.750981 -0.0015841 5.11383e-05
0.752756 -0.000341253 1.14354e-05
0.753175 -9.07922e-05 -3.76e-06
0.753712 -0.000222027 -7.50864e-05
0.76446 -0.00276552 -0.00268986
0.445373 -0.0394914 -0.0402556
0.873414 0.0188382 -0.0284099
0.858261 -0.233913 0.0170553
0.727478 -0.0480558 0.00249251
0.74497 -0.0092053 0.000272281
0.751357 -0.00190089 4.66189e-05
0.752843 -0.000410073 9.74701e-06
0.7532 -0.000105953 -4.47756e-06
0.753611 -0.000220877 -7.828e-05
0.764609 -0.00217051 -0.00269846
0.494855 -0.053444 -0.0457402
0.907147 0.0190708 -0.0262209
0.896072 -0.219448 0.0134277
0.74283 -0.0517533 0.00229627
0.74716 -0.0103377 0.00023415
0.751745 -0.00216068 3.69723e-05
0.752924 -0.000467249 7.60125e-06
0.75321 -0.000116884 -5.22507e-06
0.753522 -0.000198175 -8.02462e-05
0.764719 -0.00163209 -0.00270429
0.534756 -0.0568968 -0.0497411
0.909842 0.0162791 -0.0232844
0.900646 -0.200545 0.00790743
0.752957 -0.0531728 0.00158619
0.749255 -0.0111235 0.000168304
0.752167 -0.00235702 2.58034e-05
0.753012 -0.000511159 5.23153e-06
0.753222 -0.000123446 -5.96192e-06
0.753458 -0.00015989 -8.14693e-05
0.764799 -0.00113712 -0.00270814
0.5672 -0.0520072 -0.0528474
0.907039 0.0133967 -0.0211262
0.898947 -0.179754 0.00414454
0.76158 -0.0527515 0.000949148
0.751423 -0.0115609 0.000100491
0.75262 -0.00248504 1.44824e-05
0.753108 -0.000540611 2.76262e-06
0.753238 -0.000125719 -6.66327e-06
0.753417 -0.000110925 -8.22158e-05
0.764852 -0.000672514 -0.00271048
0.592364 -0.0406934 -0.055408
0.903784 0.0115598 -0.019824
0.896344 -0.158852 0.00178276
0.769135 -0.0508818 0.00049605