# vtk DataFile Version 2.0
TestTestTest
ASCII

DATASET STRUCTURED_GRID
DIMENSIONS 11 21 11
POINTS 2541 float
0 0 0
0.5 0 0
1 0 0
1.5 0 0
2 0 0
2.5 0 0
3 0 0
3.5 0 0
4 0 0
4.5 0 0
5 0 0
0 0.05 0
0.5 0.05 0
1 0.05 0
1.5 0.05 0
2 0.05 0
2.5 0.05 0
3 0.05 0
3.5 0.05 0
4 0.05 0
4.5 0.05 0
5 0.05 0
0 0.1 0
0.5 0.1 0
1 0.1 0
1.5 0.1 0
2 0.1 0
2.5 0.1 0
3 0.1 0
3.5 0.1 0
4 0.1 0
4.5 0.1 0
5 0.1 0
0 0.15 0
0.5 0.15 0
1 0.15 0
1.5 0.15 0
2 0.15 0
2.5 0.15 0
3 0.15 0
3.5 0.15 0
4 0.15 0
4.5 0.15 0
5 0.15 0
0 0.2 0
0.5 0.2 0
1 0.2 0
1.5 0.2 0
2 0.2 0
2.5 0.2 0
3 0.2 0
3.5 0.2 0
4 0.2 0
4.5 0.2 0
5 0.2 0
0 0.25 0
0.5 0.25 0
1 0.25 0
1.5 0.25 0
2 0.25 0
2.5 0.25 0
3 0.25 0
3.5 0.25 0
4 0.25 0
4.5 0.25 0
5 0.25 0
0 0.3 0
0.5 0.3 0
1 0.3 0
1.5 0.3 0
2 0.3 0
2.5 0.3 0
3 0.3 0
3.5 0.3 0
4 0.3 0
4.5 0.3 0
5 0.3 0
0 0.35 0
0.5 0.35 0
1 0.35 0
1.5 0.35 0
2 0.35 0
2.5 0.35 0
3 0.35 0
3.5 0.35 0
4 0.35 0
4.5 0.35 0
5 0.35 0
0 0.4 0
0.5 0.4 0
1 0.4 0
1.5 0.4 0
2 0.4 0
2.5 0.4 0
3 0.4 0
3.5 0.4 0
4 0.4 0
4.5 0.4 0
5 0.4 0
0 0.45 0
0.5 0.45 0
1 0.45 0
1.5 0.45 0
2 0.45 0
2.5 0.45 0
3 0.45 0
3.5 0.45 0
4 0.45 0
4.5 0.45 0
5 0.45 0
0 0.5 0
0.5 0.5 0
1 0.5 0
1.5 0.5 0
2 0.5 0
2.5 0.5 0
3 0.5 0
3.5 0.5 0
4 0.5 0
4.5 0.5 0
5 0.5 0
0 0.55 0
0.5 0.55 0
1 0.55 0
1.5 0.55 0
2 0.55 0
2.5 0.55 0
3 0.55 0
3.5 0.55 0
4 0.55 0
4.5 0.55 0
5 0.55 0
0 0.6 0
0.5 0.6 0
1 0.6 0
1.5 0.6 0
2 0.6 0
2.5 0.6 0
3 0.6 0
3.5 0.6 0
4 0.6 0
4.5 0.6 0
5 0.6 0
0 0.65 0
0.5 0.65 0
1 0.65 0
1.5 0.65 0
2 0.65 0
2.5 0.65 0
3 0.65 0
3.5 0.65 0
4 0.65 0
4.5 0.65 0
5 0.65 0
0 0.7 0
0.5 0.7 0
1 0.7 0
1.5 0.7 0
2 0.7 0
2.5 0.7 0
3 0.7 0
3.5 0.7 0
4 0.7 0
4.5 0.7 0
5 0.7 0
0 0.75 0
0.5 0.75 0
1 0.75 0
1.5 0.75 0
2 0.75 0
2.5 0.75 0
3 0.75 0
3.5 0.75 0
4 0.75 0
4.5 0.75 0
5 0.75 0
0 0.8 0
0.5 0.8 0
1 0.8 0
1.5 0.8 0
2 0.8 0
2.5 0.8 0
3 0.8 0
3.5 0.8 0
4 0.8 0
4.5 0.8 0
5 0.8 0
0 0.85 0
0.5 0.85 0
1 0.85 0
1.5 0.85 0
2 0.85 0
2.5 0.85 0
3 0.85 0
3.5 0.85 0
4 0.85 0
4.5 0.85 0
5 0.85 0
0 0.9 0
0.5 0.9 0
1 0.9 0
1.5 0.9 0
2 0.9 0
2.5 0.9 0
3 0.9 0
3.5 0.9 0
4 0.9 0
4.5 0.9 0
5 0.9 0
0 0.95 0
0.5 0.95 0
1 0.95 0
1.5 0.95 0
2 0.95 0
2.5 0.95 0
3 0.95 0
3.5 0.95 0
4 0.95 0
4.5 0.95 0
5 0.95 0
0 1 0
0.5 1 0
1 1 0
1.5 1 0
2 1 0
2.5 1 0
3 1 0
3.5 1 0
4 1 0
4.5 1 0
5 1 0
0 0 0.1
0.5 0 0.1
1 0 0.1
1.5 0 0.1
2 0 0.1
2.5 0 0.1
3 0 0.1
3.5 0 0.1
4 0 0.1
4.5 0 0.1
5 0 0.1
0 0.05 0.1
0.5 0.05 0.1
1 0.05 0.1
1.5 0.05 0.1
2 0.05 0.1
2.5 0.05 0.1
3 0.05 0.1
3.5 0.05 0.1
4 0.05 0.1
4.5 0.05 0.1
5 0.05 0.1
0 0.1 0.1
0.5 0.1 0.1
1 0.1 0.1
1.5 0.1 0.1
2 0.1 0.1
2.5 0.1 0.1
3 0.1 0.1
3.5 0.1 0.1
4 0.1 0.1
4.5 0.1 0.1
5 0.1 0.1
0 0.15 0.1
0.5 0.15 0.1
1 0.15 0.1
1.5 0.15 0.1
2 0.15 0.1
2.5 0.15 0.1
3 0.15 0.1
3.5 0.15 0.1
4 0.15 0.1
4.5 0.15 0.1
5 0.15 0.1
0 0.2 0.1
0.5 0.2 0.1
1 0.2 0.1
1.5 0.2 0.1
2 0.2 0.1
2.5 0.2 0.1
3 0.2 0.1
3.5 0.2 0.1
4 0.2 0.1
4.5 0.2 0.1
5 0.2 0.1
0 0.25 0.1
0.5 0.25 0.1
1 0.25 0.1
1.5 0.25 0.1
2 0.25 0.1
2.5 0.25 0.1
3 0.25 0.1
3.5 0.25 0.1
4 0.25 0.1
4.5 0.25 0.1
5 0.25 0.1
0 0.3 0.1
0.5 0.3 0.1
1 0.3 0.1
1.5 0.3 0.1
2 0.3 0.1
2.5 0.3 0.1
3 0.3 0.1
3.5 0.3 0.1
4 0.3 0.1
4.5 0.3 0.1
5 0.3 0.1
0 0.35 0.1
0.5 0.35 0.1
1 0.35 0.1
1.5 0.35 0.1
2 0.35 0.1
2.5 0.35 0.1
3 0.35 0.1
3.5 0.35 0.1
4 0.35 0.1
4.5 0.35 0.1
5 0.35 0.1
0 0.4 0.1
0.5 0.4 0.1
1 0.4 0.1
1.5 0.4 0.1
2 0.4 0.1
2.5 0.4 0.1
3 0.4 0.1
3.5 0.4 0.1
4 0.4 0.1
4.5 0.4 0.1
5 0.4 0.1
0 0.45 0.1
0.5 0.45 0.1
1 0.45 0.1
1.5 0.45 0.1
2 0.45 0.1
2.5 0.45 0.1
3 0.45 0.1
3.5 0.45 0.1
4 0.45 0.1
4.5 0.45 0.1
5 0.45 0.1
0 0.5 0.1
0.5 0.5 0.1
1 0.5 0.1
1.5 0.5 0.1
2 0.5 0.1
2.5 0.5 0.1
3 0.5 0.1
3.5 0.5 0.1
4 0.5 0.1
4.5 0.5 0.1
5 0.5 0.1
0 0.55 0.1
0.5 0.55 0.1
1 0.55 0.1
1.5 0.55 0.1
2 0.55 0.1
2.5 0.55 0.1
3 0.55 0.1
3.5 0.55 0.1
4 0.55 0.1
4.5 0.55 0.1
5 0.55 0.1
0 0.6 0.1
0.5 0.6 0.1
1 0.6 0.1
1.5 0.6 0.1
2 0.6 0.1
2.5 0.6 0.1
3 0.6 0.1
3.5 0.6 0.1
4 0.6 0.1
4.5 0.6 0.1
5 0.6 0.1
0 0.65 0.1
0.5 0.65 0.1
1 0.65 0.1
1.5 0.65 0.1
2 0.65 0.1
2.5 0.65 0.1
3 0.65 0.1
3.5 0.65 0.1
4 0.65 0.1
4.5 0.65 0.1
5 0.65 0.1
0 0.7 0.1
0.5 0.7 0.1
1 0.7 0.1
1.5 0.7 0.1
2 0.7 0.1
2.5 0.7 0.1
3 0.7 0.1
3.5 0.7 0.1
4 0.7 0.1
4.5 0.7 0.1
5 0.7 0.1
0 0.75 0.1
0.5 0.75 0.1
1 0.75 0.1
1.5 0.75 0.1
2 0.75 0.1
2.5 0.75 0.1
3 0.75 0.1
3.5 0.75 0.1
4 0.75 0.1
4.5 0.75 0.1
5 0.75 0.1
0 0.8 0.1
0.5 0.8 0.1
1 0.8 0.1
1.5 0.8 0.1
2 0.8 0.1
2.5 0.8 0.1
3 0.8 0.1
3.5 0.8 0.1
4 0.8 0.1
4.5 0.8 0.1
5 0.8 0.1
0 0.85 0.1
0.5 0.85 0.1
1 0.85 0.1
1.5 0.85 0.1
2 0.85 0.1
2.5 0.85 0.1
3 0.85 0.1
3.5 0.85 0.1
4 0.85 0.1
4.5 0.85 0.1
5 0.85 0.1
0 0.9 0.1
0.5 0.9 0.1
1 0.9 0.1
1.5 0.9 0.1
2 0.9 0.1
2.5 0.9 0.1
3 0.9 0.1
3.5 0.9 0.1
4 0.9 0.1
4.5 0.9 0.1
5 0.9 0.1
0 0.95 0.1
0.5 0.95 0.1
1 0.95 0.1
1.5 0.95 0.1
2 0.95 0.1
2.5 0.95 0.1
3 0.95 0.1
3.5 0.95 0.1
4 0.95 0.1
4.5 0.95 0.1
5 0.95 0.1
0 1 0.1
0.5 1 0.1
1 1 0.1
1.5 1 0.1
2 1 0.1
2.5 1 0.1
3 1 0.1
3.5 1 0.1
4 1 0.1
4.5 1 0.1
5 1 0.1
0 0 0.2
0.5 0 0.2
1 0 0.2
1.5 0 0.2
2 0 0.2
2.5 0 0.2
3 0 0.2
3.5 0 0.2
4 0 0.2
4.5 0 0.2
5 0 0.2
0 0.05 0.2
0.5 0.05 0.2
1 0.05 0.2
1.5 0.05 0.2
2 0.05 0.2
2.5 0.05 0.2
3 0.05 0.2
3.5 0.05 0.2
4 0.05 0.2
4.5 0.05 0.2
5 0.05 0.2
0 0.1 0.2
0.5 0.1 0.2
1 0.1 0.2
1.5 0.1 0.2
2 0.1 0.2
2.5 0.1 0.2
3 0.1 0.2
3.5 0.1 0.2
4 0.1 0.2
4.5 0.1 0.2
5 0.1 0.2
0 0.15 0.2
0.5 0.15 0.2
1 0.15 0.2
1.5 0.15 0.2
2 0.15 0.2
2.5 0.15 0.2
3 0.15 0.2
3.5 0.15 0.2
4 0.15 0.2
4.5 0.15 0.2
5 0.15 0.2
0 0.2 0.2
0.5 0.2 0.2
1 0.2 0.2
1.5 0.2 0.2
2 0.2 0.2
2.5 0.2 0.2
3 0.2 0.2
3.5 0.2 0.2
4 0.2 0.2
4.5 0.2 0.2
5 0.2 0.2
0 0.25 0.2
0.5 0.25 0.2
1 0.25 0.2
1.5 0.25 0.2
2 0.25 0.2
2.5 0.25 0.2
3 0.25 0.2
3.5 0.25 0.2
4 0.25 0.2
4.5 0.25 0.2
5 0.25 0.2
0 0.3 0.2
0.5 0.3 0.2
1 0.3 0.2
1.5 0.3 0.2
2 0.3 0.2
2.5 0.3 0.2
3 0.3 0.2
3.5 0.3 0.2
4 0.3 0.2
4.5 0.3 0.2
5 0.3 0.2
0 0.35 0.2
0.5 0.35 0.2
1 0.35 0.2
1.5 0.35 0.2
2 0.35 0.2
2.5 0.35 0.2
3 0.35 0.2
3.5 0.35 0.2
4 0.35 0.2
4.5 0.35 0.2
5 0.35 0.2
0 0.4 0.2
0.5 0.4 0.2
1 0.4 0.2
1.5 0.4 0.2
2 0.4 0.2
2.5 0.4 0.2
3 0.4 0.2
3.5 0.4 0.2
4 0.4 0.2
4.5 0.4 0.2
5 0.4 0.2
0 0.45 0.2
0.5 0.45 0.2
1 0.45 0.2
1.5 0.45 0.2
2 0.45 0.2
2.5 0.45 0.2
3 0.45 0.2
3.5 0.45 0.2
4 0.45 0.2
4.5 0.45 0.2
5 0.45 0.2
0 0.5 0.2
0.5 0.5 0.2
1 0.5 0.2
1.5 0.5 0.2
2 0.5 0.2
2.5 0.5 0.2
3 0.5 0.2
3.5 0.5 0.2
4 0.5 0.2
4.5 0.5 0.2
5 0.5 0.2
0 0.55 0.2
0.5 0.55 0.2
1 0.55 0.2
1.5 0.55 0.2
2 0.55 0.2
2.5 0.55 0.2
3 0.55 0.2
3.5 0.55 0.2
4 0.55 0.2
4.5 0.55 0.2
5 0.55 0.2
0 0.6 0.2
0.5 0.6 0.2
1 0.6 0.2
1.5 0.6 0.2
2 0.6 0.2
2.5 0.6 0.2
3 0.6 0.2
3.5 0.6 0.2
4 0.6 0.2
4.5 0.6 0.2
5 0.6 0.2
0 0.65 0.2
0.5 0.65 0.2
1 0.65 0.2
1.5 0.65 0.2
2 0.65 0.2
2.5 0.65 0.2
3 0.65 0.2
3.5 0.65 0.2
4 0.65 0.2
4.5 0.65 0.2
5 0.65 0.2
0 0.7 0.2
0.5 0.7 0.2
1 0.7 0.2
1.5 0.7 0.2
2 0.7 0.2
2.5 0.7 0.2
3 0.7 0.2
3.5 0.7 0.2
4 0.7 0.2
4.5 0.7 0.2
5 0.7 0.2
0 0.75 0.2
0.5 0.75 0.2
1 0.75 0.2
1.5 0.75 0.2
2 0.75 0.2
2.5 0.75 0.2
3 0.75 0.2
3.5 0.75 0.2
4 0.75 0.2
4.5 0.75 0.2
5 0.75 0.2
0 0.8 0.2
0.5 0.8 0.2
1 0.8 0.2
1.5 0.8 0.2
2 0.8 0.2
2.5 0.8 0.2
3 0.8 0.2
3.5 0.8 0.2
4 0.8 0.2
4.5 0.8 0.2
5 0.8 0.2
0 0.85 0.2
0.5 0.85 0.2
1 0.85 0.2
1.5 0.85 0.2
2 0.85 0.2
2.5 0.85 0.2
3 0.85 0.2
3.5 0.85 0.2
4 0.85 0.2
4.5 0.85 0.2
5 0.85 0.2
0 0.9 0.2
0.5 0.9 0.2
1 0.9 0.2
1.5 0.9 0.2
2 0.9 0.2
2.5 0.9 0.2
3 0.9 0.2
3.5 0.9 0.2
4 0.9 0.2
4.5 0.9 0.2
5 0.9 0.2
0 0.95 0.2
0.5 0.95 0.2
1 0.95 0.2
1.5 0.95 0.2
2 0.95 0.2
2.5 0.95 0.2
3 0.95 0.2
3.5 0.95 0.2
4 0.95 0.2
4.5 0.95 0.2
5 0.95 0.2
0 1 0.2
0.5 1 0.2
1 1 0.2
1.5 1 0.2
2 1 0.2
2.5 1 0.2
3 1 0.2
3.5 1 0.2
4 1 0.2
4.5 1 0.2
5 1 0.2
0 0 0.3
0.5 0 0.3
1 0 0.3
1.5 0 0.3
2 0 0.3
2.5 0 0.3
3 0 0.3
3.5 0 0.3
4 0 0.3
4.5 0 0.3
5 0 0.3
0 0.05 0.3
0.5 0.05 0.3
1 0.05 0.3
1.5 0.05 0.3
2 0.05 0.3
2.5 0.05 0.3
3 0.05 0.3
3.5 0.05 0.3
4 0.05 0.3
4.5 0.05 0.3
5 0.05 0.3
0 0.1 0.3
0.5 0.1 0.3
1 0.1 0.3
1.5 0.1 0.3
2 0.1 0.3
2.5 0.1 0.3
3 0.1 0.3
3.5 0.1 0.3
4 0.1 0.3
4.5 0.1 0.3
5 0.1 0.3
0 0.15 0.3
0.5 0.15 0.3
1 0.15 0.3
1.5 0.15 0.3
2 0.15 0.3
2.5 0.15 0.3
3 0.15 0.3
3.5 0.15 0.3
4 0.15 0.3
4.5 0.15 0.3
5 0.15 0.3
0 0.2 0.3
0.5 0.2 0.3
1 0.2 0.3
1.5 0.2 0.3
2 0.2 0.3
2.5 0.2 0.3
3 0.2 0.3
3.5 0.2 0.3
4 0.2 0.3
4.5 0.2 0.3
5 0.2 0.3
0 0.25 0.3
0.5 0.25 0.3
1 0.25 0.3
1.5 0.25 0.3
2 0.25 0.3
2.5 0.25 0.3
3 0.25 0.3
3.5 0.25 0.3
4 0.25 0.3
4.5 0.25 0.3
5 0.25 0.3
0 0.3 0.3
0.5 0.3 0.3
1 0.3 0.3
1.5 0.3 0.3
2 0.3 0.3
2.5 0.3 0.3
3 0.3 0.3
3.5 0.3 0.3
4 0.3 0.3
4.5 0.3 0.3
5 0.3 0.3
0 0.35 0.3
0.5 0.35 0.3
1 0.35 0.3
1.5 0.35 0.3
2 0.35 0.3
2.5 0.35 0.3
3 0.35 0.3
3.5 0.35 0.3
4 0.35 0.3
4.5 0.35 0.3
5 0.35 0.3
0 0.4 0.3
0.5 0.4 0.3
1 0.4 0.3
1.5 0.4 0.3
2 0.4 0.3
2.5 0.4 0.3
3 0.4 0.3
3.5 0.4 0.3
4 0.4 0.3
4.5 0.4 0.3
5 0.4 0.3
0 0.45 0.3
0.5 0.45 0.3
1 0.45 0.3
1.5 0.45 0.3
2 0.45 0.3
2.5 0.45 0.3
3 0.45 0.3
3.5 0.45 0.3
4 0.45 0.3
4.5 0.45 0.3
5 0.45 0.3
0 0.5 0.3
0.5 0.5 0.3
1 0.5 0.3
1.5 0.5 0.3
2 0.5 0.3
2.5 0.5 0.3
3 0.5 0.3
3.5 0.5 0.3
4 0.5 0.3
4.5 0.5 0.3
5 0.5 0.3
0 0.55 0.3
0.5 0.55 0.3
1 0.55 0.3
1.5 0.55 0.3
2 0.55 0.3
2.5 0.55 0.3
3 0.55 0.3
3.5 0.55 0.3
4 0.55 0.3
4.5 0.55 0.3
5 0.55 0.3
0 0.6 0.3
0.5 0.6 0.3
1 0.6 0.3
1.5 0.6 0.3
2 0.6 0.3
2.5 0.6 0.3
3 0.6 0.3
3.5 0.6 0.3
4 0.6 0.3
4.5 0.6 0.3
5 0.6 0.3
0 0.65 0.3
0.5 0.65 0.3
1 0.65 0.3
1.5 0.65 0.3
2 0.65 0.3
2.5 0.65 0.3
3 0.65 0.3
3.5 0.65 0.3
4 0.65 0.3
4.5 0.65 0.3
5 0.65 0.3
0 0.7 0.3
0.5 0.7 0.3
1 0.7 0.3
1.5 0.7 0.3
2 0.7 0.3
2.5 0.7 0.3
3 0.7 0.3
3.5 0.7 0.3
4 0.7 0.3
4.5 0.7 0.3
5 0.7 0.3
0 0.75 0.3
0.5 0.75 0.3
1 0.75 0.3
1.5 0.75 0.3
2 0.75 0.3
2.5 0.75 0.3
3 0.75 0.3
3.5 0.75 0.3
4 0.75 0.3
4.5 0.75 0.3
5 0.75 0.3
0 0.8 0.3
0.5 0.8 0.3
1 0.8 0.3
1.5 0.8 0.3
2 0.8 0.3
2.5 0.8 0.3
3 0.8 0.3
3.5 0.8 0.3
4 0.8 0.3
4.5 0.8 0.3
5 0.8 0.3
0 0.85 0.3
0.5 0.85 0.3
1 0.85 0.3
1.5 0.85 0.3
2 0.85 0.3
2.5 0.85 0.3
3 0.85 0.3
3.5 0.85 0.3
4 0.85 0.3
4.5 0.85 0.3
5 0.85 0.3
0 0.9 0.3
0.5 0.9 0.3
1 0.9 0.3
1.5 0.9 0.3
2 0.9 0.3
2.5 0.9 0.3
3 0.9 0.3
3.5 0.9 0.3
4 0.9 0.3
4.5 0.9 0.3
5 0.9 0.3
0 0.95 0.3
0.5 0.95 0.3
1 0.95 0.3
1.5 0.95 0.3
2 0.95 0.3
2.5 0.95 0.3
3 0.95 0.3
3.5 0.95 0.3
4 0.95 0.3
4.5 0.95 0.3
5 0.95 0.3
0 1 0.3
0.5 1 0.3
1 1 0.3
1.5 1 0.3
2 1 0.3
2.5 1 0.3
3 1 0.3
3.5 1 0.3
4 1 0.3
4.5 1 0.3
5 1 0.3
0 0 0.4
[...]
CELL_DATA 2000
SCALARS pressure float 1
LOOKUP_TABLE default
0
0
0.89088
0.968589
0.792766
0.636866
0.486086
0.336646
0.18682
0.0239455
0
0
0.888232
0.961333
0.792133
0.636735
0.486055
0.33664
0.186827
0.0261868
0
0
0.853771
0.957049
0.791181
0.636537
0.486008
0.336634
0.186898
0.0283745
0
0
0.840476
0.947428
0.790003
0.636286
0.485948
0.336627
0.187007
0.0302229
1.40841
1.54022
0.845302
0.93836
0.788625
0.635992
0.485876
0.336618
0.187128
0.0317222
1.40566
1.53692
0.866524
0.930622
0.787159
0.635667
0.485796
0.336607
0.187247
0.0329123
1.39899
1.53038
0.892906
0.924786
0.785701
0.635322
0.485707
0.336594
0.187352
0.0338262
1.38914
1.52135
0.923875
0.920785
0.78432
0.634965
0.485614
0.336577
0.187435
0.0344897
1.37874
1.51113
0.953942
0.918317
0.783059
0.634605
0.485516
0.336557
0.187491
0.0349214
1.36961
1.50086
0.981318
0.916982
0.781933
0.634251
0.485417
0.336533
0.187516
0.0351335
1.36241
1.49118
1.00559
0.916458
0.780938
0.633907
0.485318
0.336506
0.187509
0.0351323
1.35752
1.48244
1.02666
0.916477
0.780064
0.633579
0.48522
0.336476
0.18747
0.0349175
1.35538
1.47483
1.04458
0.916821
0.779297
0.63327
0.485126
0.336444
0.1874
0.0344833
1.35603
1.46842
1.0595
0.91731
0.778622
0.632983
0.485037
0.336411
0.187304
0.0338175
1.35933
1.46319
1.07158
0.9178
0.778023
0.632719
0.484955
0.336378
0.187187
0.0329013
1.36513
1.45912
1.08103
0.918178
0.777487
0.632481
0.48488
0.336347
0.187058
0.0317093
1.37292
1.45617
1.088
0.918355
0.777001
0.632271
0.484814
0.33632
0.186927
0.0302082
1.38098
1.45421
1.09268
0.918274
0.776557
0.63209
0.484759
0.336297
0.18681
0.0283582
1.38664
1.45334
1.09528
0.917943
0.776167
0.631945
0.484716
0.33628
0.186733
0.0261694
1.38899
1.45339
1.09574
0.917411
0.775864
0.631845
0.484688
0.336271
0.186723
0.0239274
0
0
0.900408
0.965946
0.792713
0.636827
0.486076
0.336657
0.187
0.028093
0
0
0.895897
0.959412
0.791803
0.636657
0.486038
0.336648
0.186984
0.0314685
0
0
0.862964
0.955272
0.790841
0.636451
0.485989
0.336642
0.187098
0.0338626
0
0
0.869522
0.948293
0.789621
0.636201
0.48593
0.336636
0.18723
0.0357399
1.3937
1.54072
0.818812
0.938311
0.788251
0.635915
0.48586
0.336628
0.187364
0.0372609
1.39036
1.55662
0.831787
0.928306
0.786802
0.635601
0.485782
0.336619
0.18749
0.0384668
1.38451
1.54757
0.869254
0.922111
0.785395
0.635269
0.485697
0.336607
0.1876
0.0393919
1.37684
1.53277
0.906755
0.918792
0.784093
0.634927
0.485606
0.336591
0.187685
0.0400629
1.3682
1.51837
0.942056
0.916953
0.782914
0.634582
0.485512
0.336572
0.187743
0.0404992
1.35979
1.50499
0.973525
0.916104
0.78186
0.634243
0.485417
0.336549
0.187769
0.0407136
1.35318
1.49293
1.00062
0.915952
0.780927
0.633914
0.485321
0.336523
0.187762
0.0407124
1.34868
1.48251
1.02364
0.916253
0.780107
0.633599
0.485227
0.336494
0.187722
0.0404955
1.34637
1.47386
1.04292
0.916808
0.779386
0.633303
0.485136
0.336462
0.187652
0.0400568
1.3463
1.46695
1.05877
0.917455
0.77875
0.633027
0.48505
0.33643
0.187553
0.0393835
1.34875
1.46161
1.07148
0.918063
0.778184
0.632773
0.48497
0.336397
0.187432
0.0384563
1.35365
1.45746
1.08127
0.918527
0.777674
0.632544
0.484897
0.336366
0.187295
0.0372485
1.35963
1.45419
1.0884
0.918772
0.777208
0.63234
0.484833
0.336337
0.187152
0.0357258
1.36562
1.45176
1.09305
0.918739
0.776782
0.632163
0.484779
0.336314
0.187013
0.033847
1.37077
1.45064
1.0955
0.918373
0.776379
0.632012
0.484735
0.336296
0.186893
0.0314517
1.37451
1.45183
1.09575
0.917639
0.775993
0.631887
0.484701
0.336287
0.186904
0.0280753
0
0
0.911315
0.96632
0.792796
0.636796
0.486066
0.336678
0.187292
0.0312957
0
0
0.90611
0.960634
0.791858
0.636618
0.486026
0.33667
0.187288
0.034873
0
0
0.878541
0.957513
0.790921
0.636408
0.485977
0.336665
0.187419
0.0373831
0
0
0.886931
0.952043
0.789766
0.636163
0.485918
0.33666
0.187566
0.0393298
1.37854
1.53358
0.811519
0.942417
0.78844
0.635882
0.48585
0.336654
0.187711
0.0408943
1.3749
1.56921
0.796148
0.930531
0.78697
0.635573
0.485773
0.336646
0.187846
0.0421289
1.37177
1.57364
0.830719
0.921376
0.785464
0.635245
0.48569
0.336635
0.187961
0.0430729
1.37185
1.55736
0.881041
0.916484
0.78406
0.634909
0.485602
0.336621
0.188051
0.0437561
1.37374
1.53483
0.92504
0.914659
0.782834
0.634571
0.485511
0.336603
0.188111
0.0441997
1.37559
1.51352
0.961911
0.914283
0.781782
0.634239
0.485418
0.336581
0.188138
0.0444176
1.37628
1.49556
0.99305
0.914609
0.780873
0.633919
0.485325
0.336555
0.188131
0.0444164
1.37518
1.48137
1.01908
0.915315
0.780085
0.633613
0.485234
0.336527
0.18809
0.0441962
1.37272
1.47075
1.04057
0.916198
0.779397
0.633325
0.485145
0.336495
0.188018
0.0437502
1.36886
1.46337
1.05804
0.917109
0.778793
0.633058
0.485062
0.336463
0.187916
0.0430648
1.36355
1.45873
1.07188
0.917928
0.778256
0.632812
0.484984
0.33643
0.187789
0.0421187
1.35776
1.45597
1.08229
0.918563
0.777773
0.632589
0.484913
0.336398
0.187644
0.0408822
1.35312
1.45387
1.08948
0.918939
0.777335
0.63239
0.48485
0.336369
0.18749
0.0393161
1.35183
1.45185
1.09391
0.918982
0.776925
0.632217
0.484796
0.336344
0.187336
0.0373679
1.35483
1.45073
1.09615
0.918627
0.77652
0.632064
0.484751
0.336325
0.187199
0.0348566
1.35925
1.45215
1.09632
0.917859
0.776116
0.631933
0.484715
0.336315
0.187198
0.0312783
0
0
0.916876
0.967625
0.792939
0.636783
0.48606
0.3367
0.187548
0.0333189
0
0
0.911894
0.962234
0.792008
0.636604
0.48602
0.336693
0.187549
0.0369386
0
0
0.884434
0.959701
0.791101
0.636395
0.485971
0.336688
0.187686
0.0394901
0
0
0.889272
0.954926
0.789999
0.636154
0.485913
0.336685
0.18784
0.0414705
1.37082
1.54104
0.80982
0.945605
0.788725
0.635879
0.485846
0.33668
0.187992
0.0430607
1.36796
1.58115
0.78185
0.933318
0.787281
0.635576
0.485771
0.336673
0.188131
0.0443144
1.36814
1.59162
0.800732
0.922615
0.785726
0.635251
0.485689
0.336663
0.188251
0.0452722
1.37604
1.57724
0.850086
0.915878
0.784207
0.634913
0.485602
0.336649
0.188343
0.0459649
1.39061
1.5499
0.904396
0.913093
0.782861
0.634574
0.485512
0.336632
0.188405
0.0464145
1.40684
1.52088
0.949529
0.912568
0.78173
0.634241
0.485421
0.33661
0.188433
0.0466352
1.41903
1.49499
0.985508
0.913041
0.780783
0.633921
0.485329
0.336585
0.188426
0.046634
1.42395
1.47468
1.01489
0.913976
0.779983
0.633617
0.485239
0.336557
0.188385
0.046411
1.42143
1.46131
1.03897
0.915117
0.779299
0.633332
0.485152
0.336526
0.188311
0.0459592
1.41132
1.4545
1.05817
0.916311
0.778713
0.633068
0.48507
0.336493
0.188206
0.0452643
1.39404
1.4523
1.07275
0.917424
0.778213
0.632828
0.484993
0.33646
0.188075
0.0443044
1.37337
1.45217
1.08323
0.918318
0.777774
0.632611
0.484923
0.336428
0.187926
0.0430489
1.356
1.45237
1.09033
0.918872
0.777369
0.632417
0.484861
0.336398
0.187765
0.041457
1.34722
1.45197
1.09465
0.919013
0.776979
0.632246
0.484807
0.336372
0.187603
0.0394752
1.34728
1.45147
1.09678
0.918702
0.776584
0.632094
0.484762
0.336352
0.18746
0.0369225
1.35113
1.45314
1.09693
0.917947
0.776181
0.631963
0.484726
0.336341
0.187455
0.0333018
0
0
0.918352
0.968472
0.793041
0.63678
0.486057
0.336714
0.187693
0.0342886
0
0
0.913071
0.963188
0.792116
0.636601
0.486018
0.336707
0.187694
0.0379187
0
0
0.884679
0.960887
0.791225
0.636393
0.485969
0.336703
0.187834
0.0404841
0
0
0.888078
0.956382
0.790147
0.636154
0.485911
0.336699
0.18799
0.0424776
1.36813
1.54767
0.807237
0.947209
0.788899
0.635882
0.485844
0.336695
0.188145
0.0440789
1.36591
1.58906
0.777113
0.934853
0.787475
0.635581
0.48577
0.336688
0.188287
0.0453415
1.36874
1.60076
0.791328
0.923868
0.785925
0.63526
0.485689
0.336679
0.188408
0.0463061
1.3822
1.58666
0.834402
0.916506
0.784377
0.634925
0.485603
0.336666
0.188502
0.0470036
1.40447
1.55753
0.887846
0.91281
0.782957
0.634584
0.485514
0.336649
0.188565
0.0474563
1.42936
1.52457
0.938358
0.911623
0.781731
0.634246
0.485422
0.336628
0.188593
0.0476785
1.44957
1.49414
0.980458
0.911869
0.780707
0.63392
0.485331
0.336603
0.188587
0.0476773
1.45889
1.46984
1.01363
0.91287
0.779865
0.633612
0.485241
0.336574
0.188545
0.0474528
1.45623
1.45452
1.0392
0.914242
0.779182
0.633328
0.485155
0.336543
0.18847
0.0469979
1.44146
1.4481
1.05867
0.915712
0.778629
0.633069
0.485073
0.33651
0.188364
0.0462983
1.41593
1.44745
1.0732
0.917059
0.778165
0.632833
0.484997
0.336477
0.188231
0.0453317
1.38649
1.44936
1.08369
0.918118
0.777755
0.63262
0.484928
0.336445
0.188079
0.0440673
1.36144
1.45129
1.09078
0.918779
0.777371
0.632428
0.484866
0.336415
0.187916
0.0424643
1.34723
1.45201
1.09506
0.918984
0.776994
0.632259
0.484813
0.336389
0.187752
0.0404693
1.34484
1.45202
1.09714
0.918705
0.776605
0.632108
0.484768
0.336369
0.187606
0.0379027
1.34817
1.45389
1.09729
0.917964
0.776205
0.631977
0.484732
0.336357
0.1876
0.0342717
0
0
0.918352
0.968472
0.793041
0.63678
0.486057
0.336714
0.187693
0.0342886
0
0
0.913071
0.963188
0.792116
0.636601
0.486018
0.336707
0.187694
0.0379187
0
0
0.884679
0.960887
0.791225
0.636393
0.485969
0.336703
0.187834
0.0404841
0
0
0.888078
0.956382
0.790147
0.636154
0.485911
0.336699
0.18799
0.0424776
1.36813
1.54767
0.807237
0.947209
0.788899
0.635882
0.485844
0.336695
0.188145
0.0440789
1.36591
1.58906
0.777113
0.934853
0.787475
0.635581
0.48577
0.336688
0.188287
0.0453415
1.36874
1.60076
0.791328
0.923868
0.785925
0.63526
0.485689
0.336679
0.188408
0.0463061
1.3822
1.58666
0.834402
0.916506
0.784377
0.634925
0.485603
0.336666
0.188502
0.0470036
1.40447
1.55753
0.887846
0.91281
0.782957
0.634584
0.485514
0.336649
0.188565
0.0474563
1.42936
1.52457
0.938358
0.911623
0.781731
0.634246
0.485422
0.336628
0.188593
0.0476785
1.44957
1.49414
0.980458
0.911869
0.780707
0.63392
0.485331
0.336603
0.188587
0.0476773
1.45889
1.46984
1.01363
0.91287
0.779865
0.633612
0.485241
0.336574
0.188545
0.0474528
1.45623
1.45452
1.0392
0.914242
0.779182
0.633328
0.485155
0.336543
0.18847
0.0469979
1.44146
1.4481
1.05867
0.915712
0.778629
0.633069
0.485073
0.33651
0.188364
0.0462983
1.41593
1.44745
1.0732
0.917059
0.778165
0.632833
0.484997
0.336477
0.188231
0.0453317
1.38649
1.44936
1.08369
0.918118
0.777755
0.63262
0.484928
0.336445
0.188079
0.0440673
1.36144
1.45129
1.09078
0.918779
0.777371
0.632428
0.484866
0.336415
0.187916
0.0424643
1.34723
1.45201
1.09506
0.918984
0.776994
0.632259
0.484813
0.336389
0.187752
0.0404693
1.34484
1.45202
1.09714
0.918705
0.776605
0.632108
0.484768
0.336369
0.187606
0.0379027
1.34817
1.45389
1.09729
0.917964
0.776205
0.631977
0.484732
0.336357
0.1876
0.0342717
0
0
0.916876
0.967625
0.792939
0.636783
0.48606
0.3367
0.187548
0.0333189
0
0
0.911894
0.962234
0.792008
0.636604
0.48602
0.336693
0.187549
0.0369386
0
0
0.884434
0.959701
0.791101
0.636395
0.485971
0.336688
0.187686
0.0394901
0
0
0.889272
0.954926
0.789999
0.636154
0.485913
0.336685
0.18784
0.0414705
1.37082
1.54104
0.80982
0.945605
0.788725
0.635879
0.485846
0.33668
0.187992
0.0430607
1.36796
1.58115
0.78185
0.933318
0.787281
0.635576
0.485771
0.336673
0.188131
0.0443144
1.36814
1.59162
0.800732
0.922615
0.785726
0.635251
0.485689
0.336663
0.188251
0.0452722
1.37604
1.57724
0.850086
0.915878
0.784207
0.634913
0.485602
0.336649
0.188343
0.0459649
1.39061
1.5499
0.904396
0.913093
0.782861
0.634574
0.485512
0.336632
0.188405
0.0464145
1.40684
1.52088
0.949529
0.912568
0.78173
0.634241
0.485421
0.33661
0.188433
0.0466352
1.41903
1.49499
0.985508
0.913041
0.780783
0.633921
0.485329
0.336585
0.188426
0.046634
1.42395
1.47468
1.01489
0.913976
0.779983
0.633617
0.485239
0.336557
0.188385
0.046411
1.42143
1.46131
1.03897
0.915117
0.779299
0.633332
0.485152
0.336526
0.188311
0.0459592
1.41132
1.4545
1.05817
0.916311
0.778713
0.633068
0.48507
0.336493
0.188206
0.0452643
1.39404
1.4523
1.07275
0.917424
0.778213
0.632828
0.484993
0.33646
0.188075
0.0443044
1.37337
1.45217
1.08323
0.918318
0.777774
0.632611
0.484923
0.336428
0.187926
0.0430489
1.356
1.45237
1.09033
0.918872
0.777369
0.632417
0.484861
0.336398
0.187765
0.041457
1.34722
1.45197
1.09465
0.919013
0.776979
0.632246
0.484807
0.336372
0.187603
0.0394752
1.34728
1.45147
1.09678
0.918702
0.776584
0.632094
0.484762
0.336352
0.18746
0.0369225
1.35113
1.45314
1.09693
0.917947
0.776181
0.631963
0.484726
0.336341
0.187455
0.0333018
0
0
0.911315
0.96632
0.792796
0.636796
0.486066
0.336678
0.187292
0.0312957
0
0
0.90611
0.960634
0.791858
0.636618
0.486026
0.33667
0.187288
0.034873
0
0
0.878541
0.957513
0.790921
0.636408
0.485977
0.336665
0.187419
0.0373831
0
0
0.886931
0.952043
0.789766
0.636163
0.485918
0.33666
0.187566
0.0393298
1.37854
1.53358
0.811519
0.942417
0.78844
0.635882
0.48585
0.336654
0.187711
0.0408943
1.3749
1.56921
0.796148
0.930531
0.78697
0.635573
0.485773
0.336646
0.187846
0.0421289
1.37177
1.57364
0.830719
0.921376
0.785464
0.635245
0.48569
0.336635
0.187961
0.0430729
1.37185
1.55736
0.881041
0.916484
0.78406
0.634909
0.485602
0.336621
0.188051
0.0437561
1.37374
1.53483
0.92504
0.914659
0.782834
0.634571
0.485511
0.336603
0.188111
0.0441997
1.37559
1.51352
0.961911
0.914283
0.781782
0.634239
0.485418
0.336581
0.188138
0.0444176
1.37628
1.49556
0.99305
0.914609
0.780873
0.633919
0.485325
0.336555
0.188131
0.0444164
1.37518
1.48137
1.01908
0.915315
0.780085
0.633613
0.485234
0.336527
0.18809
0.0441962
1.37272
1.47075
1.04057
0.916198
0.779397
0.633325
0.485145
0.336495
0.188018
0.0437502
1.36886
1.46337
1.05804
0.917109
0.778793
0.633058
0.485062
0.336463
0.187916
0.0430648
1.36355
1.45873
1.07188
0.917928
0.778256
0.632812
0.484984
0.33643
0.187789
0.0421187
1.35776
1.45597
1.08229
0.918563
0.777773
0.632589
0.484913
0.336398
0.187644
0.0408822
1.35312
1.45387
1.08948
0.918939
0.777335
0.63239
0.48485
0.336369
0.18749
0.0393161
1.35183
1.45185
1.09391
0.918982
0.776925
0.632217
0.484796
0.336344
0.187336
0.0373679
1.35483
1.45073
1.09615
0.918627
0.77652
0.632064
0.484751
0.336325
0.187199
0.0348566
1.35925
1.45215
1.09632
0.917859
0.776116
0.631933
0.484715
0.336315
0.187198
0.0312783
0
0
0.900408
0.965946
0.792713
0.636827
0.486076
0.336657
0.187
0.028093
0
0
0.895897
0.959412
0.791803
0.636657
0.486038
0.336648
0.186984
0.0314685
0
0
0.862964
0.955272
0.790841
0.636451
0.485989
0.336642
0.187098
0.0338626
0
0
0.869522
0.948293
0.789621
0.636201
0.48593
0.336636
0.18723
0.0357399
1.3937
1.54072
0.818812
0.938311
0.788251
0.635915
0.48586
0.336628
0.187364
0.0372609
1.39036
1.55662
0.831787
0.928306
0.786802
0.635601
0.485782
0.336619
0.18749
0.0384668
1.38451
1.54757
0.869254
0.922111
0.785395
0.635269
0.485697
0.336607
0.1876
0.0393919
1.37684
1.53277
0.906755
0.918792
0.784093
0.634927
0.485606
0.336591
0.187685
0.0400629
1.3682
1.51837
0.942056
0.916953
0.782914
0.634582
0.485512
0.336572
0.187743
0.0404992
1.35979
1.50499
0.973525
0.916104
0.78186
0.634243
0.485417
0.336549
0.187769
0.0407136
1.35318
1.49293
1.00062
0.915952
0.780927
0.633914
0.485321
0.336523
0.187762
0.0407124
1.34868
1.48251
1.02364
0.916253
0.780107
0.633599
0.485227
0.336494
0.187722
0.0404955
1.34637
1.47386
1.04292
0.916808
0.779386
0.633303
0.485136
0.336462
0.187652
0.0400568
1.3463
1.46695
1.05877
0.917455
0.77875
0.633027
0.48505
0.33643
0.187553
0.0393835
1.34875
1.46161
1.07148
0.918063
0.778184
0.632773
0.48497
0.336397
0.187432
0.0384563
1.35365
1.45746
1.08127
0.918527
0.777674
0.632544
0.484897
0.336366
0.187295
0.0372485
1.35963
1.45419
1.0884
0.918772
0.777208
0.63234
0.484833
0.336337
0.187152
0.0357258
1.36562
1.45176
1.09305
0.918739
0.776782
0.632163
0.484779
0.336314
0.187013
0.033847
1.37077
1.45064
1.0955
0.918373
0.776379
0.632012
0.484735
0.336296
0.186893
0.0314517
1.37451
1.45183
1.09575
0.917639
0.775993
0.631887
0.484701
0.336287
0.186904
0.0280753
0
0
0.89088
0.968589
0.792766
0.636866
0.486086
0.336646
0.18682
0.0239455
0
0
0.888232
0.961333
0.792133
0.636735
0.486055
0.33664
0.186827
0.0261868
0
0
0.853771
0.957049
0.791181
0.636537
0.486008
0.336634
0.186898
0.0283745
0
0
0.840476
0.947428
0.790003
0.636286
0.485948
0.336627
0.187007
0.0302229
1.40841
1.54022
0.845302
0.93836
0.788625
0.635992
0.485876
0.336618
0.187128
0.0317222
1.40566
1.53692
0.866524
0.930622
0.787159
0.635667
0.485796
0.336607
0.187247
0.0329123
1.39899
1.53038
0.892906
0.924786
0.785701
0.635322
0.485707
0.336594
0.187352
0.0338262
1.38914
1.52135
0.923875
0.920785
0.78432
0.634965
0.485614
0.336577
0.187435
0.0344897
1.37874
1.51113
0.953942
0.918317
0.783059
0.634605
0.485516
0.336557
0.187491
0.0349214
1.36961
1.50086
0.981318
0.916982
0.781933
0.634251
0.485417
0.336533
0.187516
0.0351335
1.36241
1.49118
1.00559
0.916458
0.780938
0.633907
0.485318
0.336506
0.187509
0.0351323
1.35752
1.48244
1.02666
0.916477
0.780064
0.633579
0.48522
0.336476
0.18747
0.0349175
1.35538
1.47483
1.04458
0.916821
0.779297
0.63327
0.485126
0.336444
0.1874
0.0344833
1.35603
1.46842
1.0595
0.91731
0.778622
0.632983
0.485037
0.336411
0.187304
0.0338175
1.35933
1.46319
1.07158
0.9178
0.778023
0.632719
0.484955
0.336378
0.187187
0.0329013
1.36513
1.45912
1.08103
0.918178
0.777487
0.632481
0.48488
0.336347
0.187058
0.0317093
1.37292
1.45617
1.088
0.918355
0.777001
0.632271
0.484814
0.33632
0.186927
0.0302082
1.38098
1.45421
1.09268
0.918274
0.776557
0.63209
0.484759
0.336297
0.18681
0.0283582
1.38664
1.45334
1.09528
0.917943
0.776167
0.631945
0.484716
0.33628
0.186733
0.0261694
1.38899
1.45339
1.09574
0.917411
0.775864
0.631845
0.484688
0.336271
0.186723
0.0239274

VECTORS velocity float
0 0 0
0 0 0
0.736349 -0.0308853 -0.00226448
0.660058 -0.00246637 0.00101467
0.685652 -0.000662232 0.000123723
0.693024 -0.000150023 2.63566e-05
0.694699 -3.35583e-05 5.84085e-06
0.695111 -9.14483e-06 -2.70546e-06
0.695542 -8.8739e-06 -4.76036e-05
0.718124 -0.00154225 -0.00136649
0 0 0
0 0 0
-0.109669 -0.0914914 -0.00180666
0.677277 -0.011804 0.000806822
0.75105 -0.00231929 0.00017066
0.761939 -0.000497949 3.69588e-05
0.764129 -0.000110646 8.05548e-06
0.764652 -2.99646e-05 -2.33207e-06
0.765409 -5.54947e-05 -5.02291e-05
0.774282 -0.00306335 -0.0016912
0 0 0
0 0 0
0.759399 -0.155333 -0.000461006
0.718982 -0.0221975 0.00067954
0.758901 -0.00419795 0.000148934
0.768762 -0.000890681 3.60788e-05
0.770924 -0.000197614 8.09422e-06
0.771444 -5.29728e-05 -2.51427e-06
0.772115 -0.000119718 -5.61522e-05
0.778994 -0.00280405 -0.00174285
0 0 0
0 0 0
-0.0954637 -0.221528 0.000120008
0.695891 -0.0313055 7.75309e-05
0.759648 -0.00597183 0.00012248
0.769596 -0.00126821 3.33847e-05
0.771624 -0.000281576 7.57482e-06
0.772106 -7.44024e-05 -2.83506e-06
0.77265 -0.00015877 -6.06942e-05
0.779523 -0.00232918 -0.00176208
0.398746 -0.0166969 -0.036008
0.788391 0.00801847 -0.0246266
0.761937 -0.252431 0.0114795
0.723901 -0.0405588 0.00111854
0.761731 -0.00761056 0.000148083
0.769939 -0.00161252 3.08318e-05
0.771729 -0.000358267 6.76237e-06
0.772158 -9.29709e-05 -3.20054e-06
0.772594 -0.000173406 -6.30369e-05
0.779664 -0.00188002 -0.00177166
0.479342 -0.044772 -0.0440552
0.937112 0.0161844 -0.0250372
0.897766 -0.242828 0.0157515
0.746757 -0.046347 0.00183134
0.76394 -0.00895235 0.000159265
0.770301 -0.00191015 2.68921e-05
0.771806 -0.000425228 5.69609e-06
0.77217 -0.000108065 -3.60391e-06
0.772517 -0.000169567 -6.44764e-05
0.779759 -0.00147652 -0.00177781
0.526021 -0.0611577 -0.0501016
0.952382 0.0143684 -0.0212289
0.917754 -0.223824 0.0109331
0.759841 -0.0494531 0.00147246
0.766036 -0.00997942 0.000127498
0.770703 -0.00215318 2.1012e-05
0.771892 -0.000480622 4.42492e-06
0.772183 -0.000119339 -4.02039e-06
0.772458 -0.000151838 -6.53861e-05
0.779833 -0.00111122 -0.00178179
0.564588 -0.0658237 -0.0551532
0.949113 0.0103317 -0.0182881
0.917539 -0.201959 0.00616815
0.769846 -0.0505197 0.000951269
0.768182 -0.0106859 8.87271e-05
0.771144 -0.00233563 1.46571e-05
0.771987 -0.000522992 3.03539e-06
0.772199 -0.000126645 -4.43488e-06
0.772416 -0.000123912 -6.59689e-05
0.779888 -0.000775054 -0.00178432
0.595912 -0.060831 -0.0593501
0.944344 0.00676292 -0.0166477
0.915115 -0.179579 0.00330477
0.778599 -0.0499703 0.000557586
0.770367 -0.0110702 5.13653e-05
0.771611 -0.00245337 8.21851e-06
0.77209 -0.000551273 1.58125e-06
0.772218 -0.00012999 -4.8365e-06
0.772391 -8.88698e-05 -6.63369e-05
0.779924 -0.000459282 -0.00178582
0.619975 -0.0482192 -0.0627659
0.939991 0.00459875 -0.015821
0.912635 -0.157926 0.00150456
0.786251 -0.0481583 0.00028405
0.772514 -0.0111412 1.88135e-05