# vtk DataFile Version 2.0
TestTestTest
ASCII

DATASET STRUCTURED_GRID
DIMENSIONS 11 21 11
POINTS 2541 float
0 0 0
0.5 0 0
1 0 0
1.5 0 0
2 0 0
2.5 0 0
3 0 0
3.5 0 0
4 0 0
4.5 0 0
5 0 0
0 0.05 0
0.5 0.05 0
1 0.05 0
1.5 0.05 0
2 0.05 0
2.5 0.05 0
3 0.05 0
3.5 0.05 0
4 0.05 0
4.5 0.05 0
5 0.05 0
0 0.1 0
0.5 0.1 0
1 0.1 0
1.5 0.1 0
2 0.1 0
2.5 0.1 0
3 0.1 0
3.5 0.1 0
4 0.1 0
4.5 0.1 0
5 0.1 0
0 0.15 0
0.5 0.15 0
1 0.15 0
1.5 0.15 0
2 0.15 0
2.5 0.15 0
3 0.15 0
3.5 0.15 0
4 0.15 0
4.5 0.15 0
5 0.15 0
0 0.2 0
0.5 0.2 0
1 0.2 0
1.5 0.2 0
2 0.2 0
2.5 0.2 0
3 0.2 0
3.5 0.2 0
4 0.2 0
4.5 0.2 0
5 0.2 0
0 0.25 0
0.5 0.25 0
1 0.25 0
1.5 0.25 0
2 0.25 0
2.5 0.25 0
3 0.25 0
3.5 0.25 0
4 0.25 0
4.5 0.25 0
5 0.25 0
0 0.3 0
0.5 0.3 0
1 0.3 0
1.5 0.3 0
2 0.3 0
2.5 0.3 0
3 0.3 0
3.5 0.3 0
4 0.3 0
4.5 0.3 0
5 0.3 0
0 0.35 0
0.5 0.35 0
1 0.35 0
1.5 0.35 0
2 0.35 0
2.5 0.35 0
3 0.35 0
3.5 0.35 0
4 0.35 0
4.5 0.35 0
5 0.35 0
0 0.4 0
0.5 0.4 0
1 0.4 0
1.5 0.4 0
2 0.4 0
2.5 0.4 0
3 0.4 0
3.5 0.4 0
4 0.4 0
4.5 0.4 0
5 0.4 0
0 0.45 0
0.5 0.45 0
1 0.45 0
1.5 0.45 0
2 0.45 0
2.5 0.45 0
3 0.45 0
3.5 0.45 0
4 0.45 0
4.5 0.45 0
5 0.45 0
0 0.5 0
0.5 0.5 0
1 0.5 0
1.5 0.5 0
2 0.5 0
2.5 0.5 0
3 0.5 0
3.5 0.5 0
4 0.5 0
4.5 0.5 0
5 0.5 0
0 0.55 0
0.5 0.55 0
1 0.55 0
1.5 0.55 0
2 0.55 0
2.5 0.55 0
3 0.55 0
3.5 0.55 0
4 0.55 0
4.5 0.55 0
5 0.55 0
0 0.6 0
0.5 0.6 0
1 0.6 0
1.5 0.6 0
2 0.6 0
2.5 0.6 0
3 0.6 0
3.5 0.6 0
4 0.6 0
4.5 0.6 0
5 0.6 0
0 0.65 0
0.5 0.65 0
1 0.65 0
1.5 0.65 0
2 0.65 0
2.5 0.65 0
3 0.65 0
3.5 0.65 0
4 0.65 0
4.5 0.65 0
5 0.65 0
0 0.7 0
0.5 0.7 0
1 0.7 0
1.5 0.7 0
2 0.7 0
2.5 0.7 0
3 0.7 0
3.5 0.7 0
4 0.7 0
4.5 0.7 0
5 0.7 0
0 0.75 0
0.5 0.75 0
1 0.75 0
1.5 0.75 0
2 0.75 0
2.5 0.75 0
3 0.75 0
3.5 0.75 0
4 0.75 0
4.5 0.75 0
5 0.75 0
0 0.8 0
0.5 0.8 0
1 0.8 0
1.5 0.8 0
2 0.8 0
2.5 0.8 0
3 0.8 0
3.5 0.8 0
4 0.8 0
4.5 0.8 0
5 0.8 0
0 0.85 0
0.5 0.85 0
1 0.85 0
1.5 0.85 0
2 0.85 0
2.5 0.85 0
3 0.85 0
3.5 0.85 0
4 0.85 0
4.5 0.85 0
5 0.85 0
0 0.9 0
0.5 0.9 0
1 0.9 0
1.5 0.9 0
2 0.9 0
2.5 0.9 0
3 0.9 0
3.5 0.9 0
4 0.9 0
4.5 0.9 0
5 0.9 0
0 0.95 0
0.5 0.95 0
1 0.95 0
1.5 0.95 0
2 0.95 0
2.5 0.95 0
3 0.95 0
3.5 0.95 0
4 0.95 0
4.5 0.95 0
5 0.95 0
0 1 0
0.5 1 0
1 1 0
1.5 1 0
2 1 0
2.5 1 0
3 1 0
3.5 1 0
4 1 0
4.5 1 0
5 1 0
0 0 0.1
0.5 0 0.1
1 0 0.1
1.5 0 0.1
2 0 0.1
2.5 0 0.1
3 0 0.1
3.5 0 0.1
4 0 0.1
4.5 0 0.1
5 0 0.1
0 0.05 0.1
0.5 0.05 0.1
1 0.05 0.1
1.5 0.05 0.1
2 0.05 0.1
2.5 0.05 0.1
3 0.05 0.1
3.5 0.05 0.1
4 0.05 0.1
4.5 0.05 0.1
5 0.05 0.1
0 0.1 0.1
0.5 0.1 0.1
1 0.1 0.1
1.5 0.1 0.1
2 0.1 0.1
2.5 0.1 0.1
3 0.1 0.1
3.5 0.1 0.1
4 0.1 0.1
4.5 0.1 0.1
5 0.1 0.1
0 0.15 0.1
0.5 0.15 0.1
1 0.15 0.1
1.5 0.15 0.1
2 0.15 0.1
2.5 0.15 0.1
3 0.15 0.1
3.5 0.15 0.1
4 0.15 0.1
4.5 0.15 0.1
5 0.15 0.1
0 0.2 0.1
0.5 0.2 0.1
1 0.2 0.1
1.5 0.2 0.1
2 0.2 0.1
2.5 0.2 0.1
3 0.2 0.1
3.5 0.2 0.1
4 0.2 0.1
4.5 0.2 0.1
5 0.2 0.1
0 0.25 0.1
0.5 0.25 0.1
1 0.25 0.1
1.5 0.25 0.1
2 0.25 0.1
2.5 0.25 0.1
3 0.25 0.1
3.5 0.25 0.1
4 0.25 0.1
4.5 0.25 0.1
5 0.25 0.1
0 0.3 0.1
0.5 0.3 0.1
1 0.3 0.1
1.5 0.3 0.1
2 0.3 0.1
2.5 0.3 0.1
3 0.3 0.1
3.5 0.3 0.1
4 0.3 0.1
4.5 0.3 0.1
5 0.3 0.1
0 0.35 0.1
0.5 0.35 0.1
1 0.35 0.1
1.5 0.35 0.1
2 0.35 0.1
2.5 0.35 0.1
3 0.35 0.1
3.5 0.35 0.1
4 0.35 0.1
4.5 0.35 0.1
5 0.35 0.1
0 0.4 0.1
0.5 0.4 0.1
1 0.4 0.1
1.5 0.4 0.1
2 0.4 0.1
2.5 0.4 0.1
3 0.4 0.1
3.5 0.4 0.1
4 0.4 0.1
4.5 0.4 0.1
5 0.4 0.1
0 0.45 0.1
0.5 0.45 0.1
1 0.45 0.1
1.5 0.45 0.1
2 0.45 0.1
2.5 0.45 0.1
3 0.45 0.1
3.5 0.45 0.1
4 0.45 0.1
4.5 0.45 0.1
5 0.45 0.1
0 0.5 0.1
0.5 0.5 0.1
1 0.5 0.1
1.5 0.5 0.1
2 0.5 0.1
2.5 0.5 0.1
3 0.5 0.1
3.5 0.5 0.1
4 0.5 0.1
4.5 0.5 0.1
5 0.5 0.1
0 0.55 0.1
0.5 0.55 0.1
1 0.55 0.1
1.5 0.55 0.1
2 0.55 0.1
2.5 0.55 0.1
3 0.55 0.1
3.5 0.55 0.1
4 0.55 0.1
4.5 0.55 0.1
5 0.55 0.1
0 0.6 0.1
0.5 0.6 0.1
1 0.6 0.1
1.5 0.6 0.1
2 0.6 0.1
2.5 0.6 0.1
3 0.6 0.1
3.5 0.6 0.1
4 0.6 0.1
4.5 0.6 0.1
5 0.6 0.1
0 0.65 0.1
0.5 0.65 0.1
1 0.65 0.1
1.5 0.65 0.1
2 0.65 0.1
2.5 0.65 0.1
3 0.65 0.1
3.5 0.65 0.1
4 0.65 0.1
4.5 0.65 0.1
5 0.65 0.1
0 0.7 0.1
0.5 0.7 0.1
1 0.7 0.1
1.5 0.7 0.1
2 0.7 0.1
2.5 0.7 0.1
3 0.7 0.1
3.5 0.7 0.1
4 0.7 0.1
4.5 0.7 0.1
5 0.7 0.1
0 0.75 0.1
0.5 0.75 0.1
1 0.75 0.1
1.5 0.75 0.1
2 0.75 0.1
2.5 0.75 0.1
3 0.75 0.1
3.5 0.75 0.1
4 0.75 0.1
4.5 0.75 0.1
5 0.75 0.1
0 0.8 0.1
0.5 0.8 0.1
1 0.8 0.1
1.5 0.8 0.1
2 0.8 0.1
2.5 0.8 0.1
3 0.8 0.1
3.5 0.8 0.1
4 0.8 0.1
4.5 0.8 0.1
5 0.8 0.1
0 0.85 0.1
0.5 0.85 0.1
1 0.85 0.1
1.5 0.85 0.1
2 0.85 0.1
2.5 0.85 0.1
3 0.85 0.1
3.5 0.85 0.1
4 0.85 0.1
4.5 0.85 0.1
5 0.85 0.1
0 0.9 0.1
0.5 0.9 0.1
1 0.9 0.1
1.5 0.9 0.1
2 0.9 0.1
2.5 0.9 0.1
3 0.9 0.1
3.5 0.9 0.1
4 0.9 0.1
4.5 0.9 0.1
5 0.9 0.1
0 0.95 0.1
0.5 0.95 0.1
1 0.95 0.1
1.5 0.95 0.1
2 0.95 0.1
2.5 0.95 0.1
3 0.95 0.1
3.5 0.95 0.1
4 0.95 0.1
4.5 0.95 0.1
5 0.95 0.1
0 1 0.1
0.5 1 0.1
1 1 0.1
1.5 1 0.1
2 1 0.1
2.5 1 0.1
3 1 0.1
3.5 1 0.1
4 1 0.1
4.5 1 0.1
5 1 0.1
0 0 0.2
0.5 0 0.2
1 0 0.2
1.5 0 0.2
2 0 0.2
2.5 0 0.2
3 0 0.2
3.5 0 0.2
4 0 0.2
4.5 0 0.2
5 0 0.2
0 0.05 0.2
0.5 0.05 0.2
1 0.05 0.2
1.5 0.05 0.2
2 0.05 0.2
2.5 0.05 0.2
3 0.05 0.2
3.5 0.05 0.2
4 0.05 0.2
4.5 0.05 0.2
5 0.05 0.2
0 0.1 0.2
0.5 0.1 0.2
1 0.1 0.2
1.5 0.1 0.2
2 0.1 0.2
2.5 0.1 0.2
3 0.1 0.2
3.5 0.1 0.2
4 0.1 0.2
4.5 0.1 0.2
5 0.1 0.2
0 0.15 0.2
0.5 0.15 0.2
1 0.15 0.2
1.5 0.15 0.2
2 0.15 0.2
2.5 0.15 0.2
3 0.15 0.2
3.5 0.15 0.2
4 0.15 0.2
4.5 0.15 0.2
5 0.15 0.2
0 0.2 0.2
0.5 0.2 0.2
1 0.2 0.2
1.5 0.2 0.2
2 0.2 0.2
2.5 0.2 0.2
3 0.2 0.2
3.5 0.2 0.2
4 0.2 0.2
4.5 0.2 0.2
5 0.2 0.2
0 0.25 0.2
0.5 0.25 0.2
1 0.25 0.2
1.5 0.25 0.2
2 0.25 0.2
2.5 0.25 0.2
3 0.25 0.2
3.5 0.25 0.2
4 0.25 0.2
4.5 0.25 0.2
5 0.25 0.2
0 0.3 0.2
0.5 0.3 0.2
1 0.3 0.2
1.5 0.3 0.2
2 0.3 0.2
2.5 0.3 0.2
3 0.3 0.2
3.5 0.3 0.2
4 0.3 0.2
4.5 0.3 0.2
5 0.3 0.2
0 0.35 0.2
0.5 0.35 0.2
1 0.35 0.2
1.5 0.35 0.2
2 0.35 0.2
2.5 0.35 0.2
3 0.35 0.2
3.5 0.35 0.2
4 0.35 0.2
4.5 0.35 0.2
5 0.35 0.2
0 0.4 0.2
0.5 0.4 0.2
1 0.4 0.2
1.5 0.4 0.2
2 0.4 0.2
2.5 0.4 0.2
3 0.4 0.2
3.5 0.4 0.2
4 0.4 0.2
4.5 0.4 0.2
5 0.4 0.2
0 0.45 0.2
0.5 0.45 0.2
1 0.45 0.2
1.5 0.45 0.2
2 0.45 0.2
2.5 0.45 0.2
3 0.45 0.2
3.5 0.45 0.2
4 0.45 0.2
4.5 0.45 0.2
5 0.45 0.2
0 0.5 0.2
0.5 0.5 0.2
1 0.5 0.2
1.5 0.5 0.2
2 0.5 0.2
2.5 0.5 0.2
3 0.5 0.2
3.5 0.5 0.2
4 0.5 0.2
4.5 0.5 0.2
5 0.5 0.2
0 0.55 0.2
0.5 0.55 0.2
1 0.55 0.2
1.5 0.55 0.2
2 0.55 0.2
2.5 0.55 0.2
3 0.55 0.2
3.5 0.55 0.2
4 0.55 0.2
4.5 0.55 0.2
5 0.55 0.2
0 0.6 0.2
0.5 0.6 0.2
1 0.6 0.2
1.5 0.6 0.2
2 0.6 0.2
2.5 0.6 0.2
3 0.6 0.2
3.5 0.6 0.2
4 0.6 0.2
4.5 0.6 0.2
5 0.6 0.2
0 0.65 0.2
0.5 0.65 0.2
1 0.65 0.2
1.5 0.65 0.2
2 0.65 0.2
2.5 0.65 0.2
3 0.65 0.2
3.5 0.65 0.2
4 0.65 0.2
4.5 0.65 0.2
5 0.65 0.2
0 0.7 0.2
0.5 0.7 0.2
1 0.7 0.2
1.5 0.7 0.2
2 0.7 0.2
2.5 0.7 0.2
3 0.7 0.2
3.5 0.7 0.2
4 0.7 0.2
4.5 0.7 0.2
5 0.7 0.2
0 0.75 0.2
0.5 0.75 0.2
1 0.75 0.2
1.5 0.75 0.2
2 0.75 0.2
2.5 0.75 0.2
3 0.75 0.2
3.5 0.75 0.2
4 0.75 0.2
4.5 0.75 0.2
5 0.75 0.2
0 0.8 0.2
0.5 0.8 0.2
1 0.8 0.2
1.5 0.8 0.2
2 0.8 0.2
2.5 0.8 0.2
3 0.8 0.2
3.5 0.8 0.2
4 0.8 0.2
4.5 0.8 0.2
5 0.8 0.2
0 0.85 0.2
0.5 0.85 0.2
1 0.85 0.2
1.5 0.85 0.2
2 0.85 0.2
2.5 0.85 0.2
3 0.85 0.2
3.5 0.85 0.2
4 0.85 0.2
4.5 0.85 0.2
5 0.85 0.2
0 0.9 0.2
0.5 0.9 0.2
1 0.9 0.2
1.5 0.9 0.2
2 0.9 0.2
2.5 0.9 0.2
3 0.9 0.2
3.5 0.9 0.2
4 0.9 0.2
4.5 0.9 0.2
5 0.9 0.2
0 0.95 0.2
0.5 0.95 0.2
1 0.95 0.2
1.5 0.95 0.2
2 0.95 0.2
2.5 0.95 0.2
3 0.95 0.2
3.5 0.95 0.2
4 0.95 0.2
4.5 0.95 0.2
5 0.95 0.2
0 1 0.2
0.5 1 0.2
1 1 0.2
1.5 1 0.2
2 1 0.2
2.5 1 0.2
3 1 0.2
3.5 1 0.2
4 1 0.2
4.5 1 0.2
5 1 0.2
0 0 0.3
0.5 0 0.3
1 0 0.3
1.5 0 0.3
2 0 0.3
2.5 0 0.3
3 0 0.3
3.5 0 0.3
4 0 0.3
4.5 0 0.3
5 0 0.3
0 0.05 0.3
0.5 0.05 0.3
1 0.05 0.3
1.5 0.05 0.3
2 0.05 0.3
2.5 0.05 0.3
3 0.05 0.3
3.5 0.05 0.3
4 0.05 0.3
4.5 0.05 0.3
5 0.05 0.3
0 0.1 0.3
0.5 0.1 0.3
1 0.1 0.3
1.5 0.1 0.3
2 0.1 0.3
2.5 0.1 0.3
3 0.1 0.3
3.5 0.1 0.3
4 0.1 0.3
4.5 0.1 0.3
5 0.1 0.3
0 0.15 0.3
0.5 0.15 0.3
1 0.15 0.3
1.5 0.15 0.3
2 0.15 0.3
2.5 0.15 0.3
3 0.15 0.3
3.5 0.15 0.3
4 0.15 0.3
4.5 0.15 0.3
5 0.15 0.3
0 0.2 0.3
0.5 0.2 0.3
1 0.2 0.3
1.5 0.2 0.3
2 0.2 0.3
2.5 0.2 0.3
3 0.2 0.3
3.5 0.2 0.3
4 0.2 0.3
4.5 0.2 0.3
5 0.2 0.3
0 0.25 0.3
0.5 0.25 0.3
1 0.25 0.3
1.5 0.25 0.3
2 0.25 0.3
2.5 0.25 0.3
3 0.25 0.3
3.5 0.25 0.3
4 0.25 0.3
4.5 0.25 0.3
5 0.25 0.3
0 0.3 0.3
0.5 0.3 0.3
1 0.3 0.3
1.5 0.3 0.3
2 0.3 0.3
2.5 0.3 0.3
3 0.3 0.3
3.5 0.3 0.3
4 0.3 0.3
4.5 0.3 0.3
5 0.3 0.3
0 0.35 0.3
0.5 0.35 0.3
1 0.35 0.3
1.5 0.35 0.3
2 0.35 0.3
2.5 0.35 0.3
3 0.35 0.3
3.5 0.35 0.3
4 0.35 0.3
4.5 0.35 0.3
5 0.35 0.3
0 0.4 0.3
0.5 0.4 0.3
1 0.4 0.3
1.5 0.4 0.3
2 0.4 0.3
2.5 0.4 0.3
3 0.4 0.3
3.5 0.4 0.3
4 0.4 0.3
4.5 0.4 0.3
5 0.4 0.3
0 0.45 0.3
0.5 0.45 0.3
1 0.45 0.3
1.5 0.45 0.3
2 0.45 0.3
2.5 0.45 0.3
3 0.45 0.3
3.5 0.45 0.3
4 0.45 0.3
4.5 0.45 0.3
5 0.45 0.3
0 0.5 0.3
0.5 0.5 0.3
1 0.5 0.3
1.5 0.5 0.3
2 0.5 0.3
2.5 0.5 0.3
3 0.5 0.3
3.5 0.5 0.3
4 0.5 0.3
4.5 0.5 0.3
5 0.5 0.3
0 0.55 0.3
0.5 0.55 0.3
1 0.55 0.3
1.5 0.55 0.3
2 0.55 0.3
2.5 0.55 0.3
3 0.55 0.3
3.5 0.55 0.3
4 0.55 0.3
4.5 0.55 0.3
5 0.55 0.3
0 0.6 0.3
0.5 0.6 0.3
1 0.6 0.3
1.5 0.6 0.3
2 0.6 0.3
2.5 0.6 0.3
3 0.6 0.3
3.5 0.6 0.3
4 0.6 0.3
4.5 0.6 0.3
5 0.6 0.3
0 0.65 0.3
0.5 0.65 0.3
1 0.65 0.3
1.5 0.65 0.3
2 0.65 0.3
2.5 0.65 0.3
3 0.65 0.3
3.5 0.65 0.3
4 0.65 0.3
4.5 0.65 0.3
5 0.65 0.3
0 0.7 0.3
0.5 0.7 0.3
1 0.7 0.3
1.5 0.7 0.3
2 0.7 0.3
2.5 0.7 0.3
3 0.7 0.3
3.5 0.7 0.3
4 0.7 0.3
4.5 0.7 0.3
5 0.7 0.3
0 0.75 0.3
0.5 0.75 0.3
1 0.75 0.3
1.5 0.75 0.3
2 0.75 0.3
2.5 0.75 0.3
3 0.75 0.3
3.5 0.75 0.3
4 0.75 0.3
4.5 0.75 0.3
5 0.75 0.3
0 0.8 0.3
0.5 0.8 0.3
1 0.8 0.3
1.5 0.8 0.3
2 0.8 0.3
2.5 0.8 0.3
3 0.8 0.3
3.5 0.8 0.3
4 0.8 0.3
4.5 0.8 0.3
5 0.8 0.3
0 0.85 0.3
0.5 0.85 0.3
1 0.85 0.3
1.5 0.85 0.3
2 0.85 0.3
2.5 0.85 0.3
3 0.85 0.3
3.5 0.85 0.3
4 0.85 0.3
4.5 0.85 0.3
5 0.85 0.3
0 0.9 0.3
0.5 0.9 0.3
1 0.9 0.3
1.5 0.9 0.3
2 0.9 0.3
2.5 0.9 0.3
3 0.9 0.3
3.5 0.9 0.3
4 0.9 0.3
4.5 0.9 0.3
5 0.9 0.3
0 0.95 0.3
0.5 0.95 0.3
1 0.95 0.3
1.5 0.95 0.3
2 0.95 0.3
2.5 0.95 0.3
3 0.95 0.3
3.5 0.95 0.3
4 0.95 0.3
4.5 0.95 0.3
5 0.95 0.3
0 1 0.3
0.5 1 0.3
1 1 0.3
1.5 1 0.3
2 1 0.3
2.5 1 0.3
3 1 0.3
3.5 1 0.3
4 1 0.3
4.5 1 0.3
5 1 0.3
0 0 0.4
[...]
CELL_DATA 2000
SCALARS pressure float 1
LOOKUP_TABLE default
0
0
0.89163
1.02513
0.845131
0.681348
0.520469
0.360325
0.199538
0.0244035
0
0
0.891581
1.01711
0.844485
0.681225
0.52044
0.360321
0.199583
0.0272198
0
0
0.852479
1.01251
0.84363
0.681067
0.520403
0.360318
0.199685
0.0297189
0
0
0.845269
1.00194
0.842659
0.680885
0.52036
0.360317
0.199818
0.031792
1.80896
1.9622
0.860129
0.992891
0.841625
0.680685
0.52031
0.360315
0.199962
0.0334781
1.80369
1.9444
0.89966
0.986851
0.840638
0.680477
0.520257
0.360312
0.200101
0.03482
1.79364
1.92006
0.94618
0.983662
0.839768
0.680266
0.5202
0.360307
0.200222
0.0358526
1.77975
1.89401
0.993529
0.982644
0.839052
0.68006
0.52014
0.360299
0.200319
0.0366033
1.76504
1.86874
1.0374
0.983215
0.838498
0.679861
0.520079
0.360288
0.200385
0.0370925
1.75169
1.84549
1.07671
0.984882
0.838092
0.679674
0.520018
0.360274
0.200416
0.0373333
1.74059
1.82476
1.11115
0.98724
0.837815
0.679499
0.519958
0.360255
0.200411
0.0373323
1.73235
1.80665
1.14079
0.989963
0.837636
0.679337
0.519899
0.360233
0.200369
0.0370895
1.72757
1.79111
1.16588
0.992786
0.837529
0.679187
0.519842
0.360209
0.200294
0.0365985
1.7264
1.77804
1.18672
0.995496
0.837462
0.679048
0.519787
0.360183
0.200187
0.0358459
1.72859
1.76732
1.20363
0.997927
0.837409
0.678919
0.519735
0.360155
0.200057
0.0348116
1.73384
1.75888
1.21692
0.999948
0.837344
0.678798
0.519688
0.360129
0.19991
0.0334681
1.74156
1.75267
1.22687
1.00146
0.837249
0.678684
0.519644
0.360104
0.199759
0.0317806
1.74988
1.74863
1.23372
1.00239
0.837105
0.678578
0.519606
0.360083
0.19962
0.0297063
1.75605
1.74678
1.23768
1.00271
0.836908
0.678478
0.519573
0.360066
0.199513
0.0272061
1.75933
1.74682
1.23873
1.0024
0.836668
0.678392
0.519548
0.360056
0.199464
0.024389
0
0
0.897864
1.02076
0.844776
0.681267
0.520451
0.360337
0.199757
0.0291946
0
0
0.896552
1.01396
0.844
0.681122
0.520418
0.360332
0.199815
0.0327406
0
0
0.856342
1.00981
0.843189
0.680966
0.520382
0.36033
0.199936
0.0353541
0
0
0.875517
1.00173
0.842239
0.68079
0.520339
0.360329
0.20008
0.0374792
1.79187
2.00336
0.799154
0.990725
0.841241
0.6806
0.520292
0.360328
0.200229
0.0391976
1.78575
1.99397
0.844241
0.982816
0.840294
0.680405
0.520242
0.360327
0.200372
0.0405598
1.77604
1.95191
0.910335
0.980499
0.83949
0.680209
0.520188
0.360323
0.200496
0.0416052
1.76377
1.91489
0.970602
0.980588
0.838852
0.680019
0.520132
0.360316
0.200594
0.042364
1.74969
1.88323
1.02321
0.981956
0.838377
0.679837
0.520075
0.360306
0.200661
0.0428578
1.7354
1.85625
1.0681
0.984192
0.838045
0.679666
0.520018
0.360293
0.200693
0.0431008
1.72349
1.83312
1.10613
0.986957
0.837832
0.679507
0.519962
0.360275
0.200688
0.0430998
1.7149
1.81332
1.1381
0.989972
0.837711
0.679359
0.519906
0.360254
0.200646
0.042855
1.70998
1.79644
1.16471
0.993004
0.837652
0.679223
0.519853
0.36023
0.20057
0.0423594
1.70889
1.78215
1.18651
0.995864
0.837626
0.679097
0.519801
0.360205
0.200463
0.0415989
1.71164
1.77021
1.20401
0.998401
0.837606
0.678978
0.519753
0.360178
0.20033
0.0405519
1.7176
1.76039
1.2176
1.0005
0.837569
0.678867
0.519707
0.360151
0.20018
0.0391882
1.7245
1.75271
1.22765
1.00206
0.837494
0.67876
0.519666
0.360126
0.200023
0.0374684
1.73108
1.74737
1.23444
1.00302
0.837367
0.678659
0.519628
0.360105
0.199873
0.0353422
1.73693
1.74455
1.23821
1.00332
0.837173
0.67856
0.519596
0.360088
0.199747
0.0327276
1.74142
1.74481
1.23904
1.0029
0.836884
0.678459
0.519567
0.360077
0.199686
0.0291808
0
0
0.905327
1.01864
0.844563
0.681205
0.520437
0.360359
0.200071
0.0326403
0
0
0.902273
1.0129
0.843796
0.681059
0.520404
0.360355
0.200135
0.0362961
0
0
0.869867
1.00989
0.843034
0.680905
0.520368
0.360354
0.200263
0.038981
0
0
0.890111
1.00356
0.842155
0.680736
0.520327
0.360354
0.200414
0.0411556
1.77542
2.01418
0.773441
0.992509
0.841195
0.680554
0.520281
0.360354
0.200569
0.0429078
1.76841
2.04113
0.778509
0.981789
0.840227
0.680366
0.520233
0.360353
0.200716
0.044293
1.76076
1.99933
0.862912
0.977144
0.839371
0.680178
0.520181
0.36035
0.200843
0.0453539
1.75613
1.95024
0.941141
0.977444
0.838712
0.679995
0.520128
0.360344
0.200943
0.0461228
1.7528
1.90959
1.00411
0.979545
0.83825
0.679822
0.520074
0.360335
0.201012
0.0466227
1.74872
1.87611
1.05589
0.982413
0.837949
0.67966
0.52002
0.360322
0.201044
0.0468686
1.74328
1.84855
1.09863
0.985688
0.837773
0.679511
0.519966
0.360306
0.201039
0.0468677
1.73721
1.82568
1.13385
0.989108
0.837689
0.679373
0.519913
0.360285
0.200997
0.0466201
1.73212
1.80657
1.16269
0.99246
0.837666
0.679246
0.519862
0.360262
0.20092
0.0461185
1.72809
1.79063
1.186
0.995573
0.837675
0.679128
0.519813
0.360236
0.200811
0.0453479
1.72382
1.77739
1.20448
0.998305
0.837685
0.679017
0.519766
0.36021
0.200675
0.0442855
1.71899
1.76648
1.21858
1.00055
0.837675
0.678912
0.519723
0.360183
0.200521
0.0428988
1.71471
1.75742
1.22872
1.00224
0.837626
0.678812
0.519682
0.360158
0.200359
0.0411453
1.7136
1.75036
1.23536
1.0033
0.837518
0.678713
0.519646
0.360136
0.200203
0.0389695
1.71773
1.74617
1.23895
1.00364
0.837331
0.678616
0.519614
0.360119
0.200069
0.0362836
1.72369
1.7458
1.23965
1.0032
0.837039
0.678513
0.519584
0.360107
0.200001
0.0326269
0
0
0.906834
1.01821
0.844473
0.681167
0.520429
0.360382
0.200339
0.0347894
0
0
0.903124
1.01278
0.843721
0.681022
0.520396
0.360378
0.200405
0.0384685
0
0
0.86947
1.0103
0.842992
0.680871
0.52036
0.360377
0.200537
0.0411798
0
0
0.883586
1.00468
0.84216
0.680707
0.52032
0.360378
0.200691
0.0433779
1.76739
2.03794
0.762905
0.993992
0.841252
0.680531
0.520276
0.360379
0.200849
0.0451492
1.76036
2.07103
0.750104
0.982848
0.840315
0.68035
0.520228
0.360378
0.200998
0.0465491
1.75515
2.03254
0.826105
0.976891
0.839431
0.680167
0.520178
0.360376
0.201128
0.0476208
1.7573
1.9789
0.914571
0.976162
0.838703
0.679987
0.520127
0.360371
0.20123
0.0483971
1.76643
1.93237
0.987071
0.977993
0.838188
0.679815
0.520074
0.360363
0.201299
0.0489017
1.77761
1.89331
1.04496
0.980895
0.83786
0.679656
0.520021
0.36035
0.201332
0.0491498
1.78495
1.86004
1.09186
0.984312
0.837675
0.67951
0.519969
0.360334
0.201327
0.0491489
1.78573
1.83244
1.13015
0.987926
0.837595
0.679376
0.519918
0.360314
0.201285
0.0488991
1.78052
1.81087
1.16128
0.99149
0.837585
0.679253
0.519868
0.360291
0.201207
0.0483929
1.76929
1.79473
1.1861
0.994834
0.837614
0.67914
0.519821
0.360265
0.201096
0.047615
1.75171
1.78222
1.20525
0.997826
0.837659
0.679035
0.519776
0.360239
0.200959
0.0465417
1.73101
1.77147
1.21948
1.00032
0.83769
0.678936
0.519733
0.360212
0.200802
0.0451405
1.71386
1.76191
1.22956
1.00219
0.837673
0.67884
0.519694
0.360187
0.200637
0.0433679
1.70594
1.75402
1.23611
1.00334
0.837585
0.678745
0.519658
0.360165
0.200477
0.0411686
1.70789
1.74889
1.2396
1.00374
0.83741
0.67865
0.519626
0.360147
0.200341
0.0384564
1.71418
1.74802
1.24021
1.00332
0.837122
0.678548
0.519596
0.360135
0.200271
0.0347764
0
0
0.90581
1.01816
0.844445
0.681151
0.520425
0.360396
0.20049
0.0358147
0
0
0.901364
1.01282
0.843701
0.681006
0.520392
0.360392
0.200556
0.0394998
0
0
0.865983
1.01052
0.842988
0.680857
0.520357
0.360392
0.200689
0.0422196
0
0
0.877841
1.00512
0.842178
0.680694
0.520317
0.360393
0.200844
0.0444266
1.76464
2.05197
0.755457
0.994616
0.841293
0.680522
0.520273
0.360394
0.201004
0.0462059
1.75777
2.08634
0.741049
0.983509
0.840381
0.680344
0.520226
0.360394
0.201154
0.0476124
1.75465
2.04842
0.81266
0.977486
0.839515
0.680165
0.520177
0.360392
0.201285
0.0486892
1.76171
1.99388
0.899724
0.976553
0.838787
0.679988
0.520127
0.360387
0.201387
0.0494693
1.77803
1.94496
0.975268
0.977942
0.838232
0.679818
0.520075
0.360379
0.201457
0.0499762
1.79823
1.90253
1.03766
0.980343
0.837839
0.679656
0.520023
0.360367
0.201491
0.0502255
1.81488
1.86562
1.08826
0.983422
0.837597
0.679507
0.519971
0.360351
0.201486
0.0502247
1.82121
1.83464
1.1289
0.986942
0.837487
0.679372
0.51992
0.360331
0.201443
0.0499737
1.81587
1.81157
1.16119
0.990647
0.837483
0.679251
0.519871
0.360308
0.201365
0.0494651
1.79887
1.79589
1.18639
0.994247
0.837545
0.679142
0.519825
0.360283
0.201253
0.0486835
1.77171
1.78421
1.20564
0.997469
0.837624
0.679041
0.51978
0.360256
0.201115
0.0476052
1.74168
1.77408
1.21993
1.00012
0.83768
0.678946
0.519738
0.360229
0.200957
0.0461973
1.71713
1.76462
1.23001
1.0021
0.837682
0.678853
0.5197
0.360204
0.200791
0.0444168
1.70428
1.75641
1.23653
1.00332
0.837608
0.67876
0.519664
0.360182
0.200629
0.0422086
1.70427
1.75082
1.23997
1.00376
0.83744
0.678665
0.519632
0.360164
0.200492
0.0394878
1.71056
1.74969
1.24054
1.00335
0.837155
0.678564
0.519603
0.360152
0.200422
0.0358018
0
0
0.90581
1.01816
0.844445
0.681151
0.520425
0.360396
0.20049
0.0358147
0
0
0.901364
1.01282
0.843701
0.681006
0.520392
0.360392
0.200556
0.0394998
0
0
0.865983
1.01052
0.842988
0.680857
0.520357
0.360392
0.200689
0.0422196
0
0
0.877841
1.00512
0.842178
0.680694
0.520317
0.360393
0.200844
0.0444266
1.76464
2.05197
0.755457
0.994616
0.841293
0.680522
0.520273
0.360394
0.201004
0.0462059
1.75777
2.08634
0.741049
0.983509
0.840381
0.680344
0.520226
0.360394
0.201154
0.0476124
1.75465
2.04842
0.81266
0.977486
0.839515
0.680165
0.520177
0.360392
0.201285
0.0486892
1.76171
1.99388
0.899724
0.976553
0.838787
0.679988
0.520127
0.360387
0.201387
0.0494693
1.77803
1.94496
0.975268
0.977942
0.838232
0.679818
0.520075
0.360379
0.201457
0.0499762
1.79823
1.90253
1.03766
0.980343
0.837839
0.679656
0.520023
0.360367
0.201491
0.0502255
1.81488
1.86562
1.08826
0.983422
0.837597
0.679507
0.519971
0.360351
0.201486
0.0502247
1.82121
1.83464
1.1289
0.986942
0.837487
0.679372
0.51992
0.360331
0.201443
0.0499737
1.81587
1.81157
1.16119
0.990647
0.837483
0.679251
0.519871
0.360308
0.201365
0.0494651
1.79887
1.79589
1.18639
0.994247
0.837545
0.679142
0.519825
0.360283
0.201253
0.0486835
1.77171
1.78421
1.20564
0.997469
0.837624
0.679041
0.51978
0.360256
0.201115
0.0476052
1.74168
1.77408
1.21993
1.00012
0.83768
0.678946
0.519738
0.360229
0.200957
0.0461973
1.71713
1.76462
1.23001
1.0021
0.837682
0.678853
0.5197
0.360204
0.200791
0.0444168
1.70428
1.75641
1.23653
1.00332
0.837608
0.67876
0.519664
0.360182
0.200629
0.0422086
1.70427
1.75082
1.23997
1.00376
0.83744
0.678665
0.519632
0.360164
0.200492
0.0394878
1.71056
1.74969
1.24054
1.00335
0.837155
0.678564
0.519603
0.360152
0.200422
0.0358018
0
0
0.906834
1.01821
0.844473
0.681167
0.520429
0.360382
0.200339
0.0347894
0
0
0.903124
1.01278
0.843721
0.681022
0.520396
0.360378
0.200405
0.0384685
0
0
0.86947
1.0103
0.842992
0.680871
0.52036
0.360377
0.200537
0.0411798
0
0
0.883586
1.00468
0.84216
0.680707
0.52032
0.360378
0.200691
0.0433779
1.76739
2.03794
0.762905
0.993992
0.841252
0.680531
0.520276
0.360379
0.200849
0.0451492
1.76036
2.07103
0.750104
0.982848
0.840315
0.68035
0.520228
0.360378
0.200998
0.0465491
1.75515
2.03254
0.826105
0.976891
0.839431
0.680167
0.520178
0.360376
0.201128
0.0476208
1.7573
1.9789
0.914571
0.976162
0.838703
0.679987
0.520127
0.360371
0.20123
0.0483971
1.76643
1.93237
0.987071
0.977993
0.838188
0.679815
0.520074
0.360363
0.201299
0.0489017
1.77761
1.89331
1.04496
0.980895
0.83786
0.679656
0.520021
0.36035
0.201332
0.0491498
1.78495
1.86004
1.09186
0.984312
0.837675
0.67951
0.519969
0.360334
0.201327
0.0491489
1.78573
1.83244
1.13015
0.987926
0.837595
0.679376
0.519918
0.360314
0.201285
0.0488991
1.78052
1.81087
1.16128
0.99149
0.837585
0.679253
0.519868
0.360291
0.201207
0.0483929
1.76929
1.79473
1.1861
0.994834
0.837614
0.67914
0.519821
0.360265
0.201096
0.047615
1.75171
1.78222
1.20525
0.997826
0.837659
0.679035
0.519776
0.360239
0.200959
0.0465417
1.73101
1.77147
1.21948
1.00032
0.83769
0.678936
0.519733
0.360212
0.200802
0.0451405
1.71386
1.76191
1.22956
1.00219
0.837673
0.67884
0.519694
0.360187
0.200637
0.0433679
1.70594
1.75402
1.23611
1.00334
0.837585
0.678745
0.519658
0.360165
0.200477
0.0411686
1.70789
1.74889
1.2396
1.00374
0.83741
0.67865
0.519626
0.360147
0.200341
0.0384564
1.71418
1.74802
1.24021
1.00332
0.837122
0.678548
0.519596
0.360135
0.200271
0.0347764
0
0
0.905327
1.01864
0.844563
0.681205
0.520437
0.360359
0.200071
0.0326403
0
0
0.902273
1.0129
0.843796
0.681059
0.520404
0.360355
0.200135
0.0362961
0
0
0.869867
1.00989
0.843034
0.680905
0.520368
0.360354
0.200263
0.038981
0
0
0.890111
1.00356
0.842155
0.680736
0.520327
0.360354
0.200414
0.0411556
1.77542
2.01418
0.773441
0.992509
0.841195
0.680554
0.520281
0.360354
0.200569
0.0429078
1.76841
2.04113
0.778509
0.981789
0.840227
0.680366
0.520233
0.360353
0.200716
0.044293
1.76076
1.99933
0.862912
0.977144
0.839371
0.680178
0.520181
0.36035
0.200843
0.0453539
1.75613
1.95024
0.941141
0.977444
0.838712
0.679995
0.520128
0.360344
0.200943
0.0461228
1.7528
1.90959
1.00411
0.979545
0.83825
0.679822
0.520074
0.360335
0.201012
0.0466227
1.74872
1.87611
1.05589
0.982413
0.837949
0.67966
0.52002
0.360322
0.201044
0.0468686
1.74328
1.84855
1.09863
0.985688
0.837773
0.679511
0.519966
0.360306
0.201039
0.0468677
1.73721
1.82568
1.13385
0.989108
0.837689
0.679373
0.519913
0.360285
0.200997
0.0466201
1.73212
1.80657
1.16269
0.99246
0.837666
0.679246
0.519862
0.360262
0.20092
0.0461185
1.72809
1.79063
1.186
0.995573
0.837675
0.679128
0.519813
0.360236
0.200811
0.0453479
1.72382
1.77739
1.20448
0.998305
0.837685
0.679017
0.519766
0.36021
0.200675
0.0442855
1.71899
1.76648
1.21858
1.00055
0.837675
0.678912
0.519723
0.360183
0.200521
0.0428988
1.71471
1.75742
1.22872
1.00224
0.837626
0.678812
0.519682
0.360158
0.200359
0.0411453
1.7136
1.75036
1.23536
1.0033
0.837518
0.678713
0.519646
0.360136
0.200203
0.0389695
1.71773
1.74617
1.23895
1.00364
0.837331
0.678616
0.519614
0.360119
0.200069
0.0362836
1.72369
1.7458
1.23965
1.0032
0.837039
0.678513
0.519584
0.360107
0.200001
0.0326269
0
0
0.897864
1.02076
0.844776
0.681267
0.520451
0.360337
0.199757
0.0291946
0
0
0.896552
1.01396
0.844
0.681122
0.520418
0.360332
0.199815
0.0327406
0
0
0.856342
1.00981
0.843189
0.680966
0.520382
0.36033
0.199936
0.0353541
0
0
0.875517
1.00173
0.842239
0.68079
0.520339
0.360329
0.20008
0.0374792
1.79187
2.00336
0.799154
0.990725
0.841241
0.6806
0.520292
0.360328
0.200229
0.0391976
1.78575
1.99397
0.844241
0.982816
0.840294
0.680405
0.520242
0.360327
0.200372
0.0405598
1.77604
1.95191
0.910335
0.980499
0.83949
0.680209
0.520188
0.360323
0.200496
0.0416052
1.76377
1.91489
0.970602
0.980588
0.838852
0.680019
0.520132
0.360316
0.200594
0.042364
1.74969
1.88323
1.02321
0.981956
0.838377
0.679837
0.520075
0.360306
0.200661
0.0428578
1.7354
1.85625
1.0681
0.984192
0.838045
0.679666
0.520018
0.360293
0.200693
0.0431008
1.72349
1.83312
1.10613
0.986957
0.837832
0.679507
0.519962
0.360275
0.200688
0.0430998
1.7149
1.81332
1.1381
0.989972
0.837711
0.679359
0.519906
0.360254
0.200646
0.042855
1.70998
1.79644
1.16471
0.993004
0.837652
0.679223
0.519853
0.36023
0.20057
0.0423594
1.70889
1.78215
1.18651
0.995864
0.837626
0.679097
0.519801
0.360205
0.200463
0.0415989
1.71164
1.77021
1.20401
0.998401
0.837606
0.678978
0.519753
0.360178
0.20033
0.0405519
1.7176
1.76039
1.2176
1.0005
0.837569
0.678867
0.519707
0.360151
0.20018
0.0391882
1.7245
1.75271
1.22765
1.00206
0.837494
0.67876
0.519666
0.360126
0.200023
0.0374684
1.73108
1.74737
1.23444
1.00302
0.837367
0.678659
0.519628
0.360105
0.199873
0.0353422
1.73693
1.74455
1.23821
1.00332
0.837173
0.67856
0.519596
0.360088
0.199747
0.0327276
1.74142
1.74481
1.23904
1.0029
0.836884
0.678459
0.519567
0.360077
0.199686
0.0291808
0
0
0.89163
1.02513
0.845131
0.681348
0.520469
0.360325
0.199538
0.0244035
0
0
0.891581
1.01711
0.844485
0.681225
0.52044
0.360321
0.199583
0.0272198
0
0
0.852479
1.01251
0.84363
0.681067
0.520403
0.360318
0.199685
0.0297189
0
0
0.845269
1.00194
0.842659
0.680885
0.52036
0.360317
0.199818
0.031792
1.80896
1.9622
0.860129
0.992891
0.841625
0.680685
0.52031
0.360315
0.199962
0.0334781
1.80369
1.9444
0.89966
0.986851
0.840638
0.680477
0.520257
0.360312
0.200101
0.03482
1.79364
1.92006
0.94618
0.983662
0.839768
0.680266
0.5202
0.360307
0.200222
0.0358526
1.77975
1.89401
0.993529
0.982644
0.839052
0.68006
0.52014
0.360299
0.200319
0.0366033
1.76504
1.86874
1.0374
0.983215
0.838498
0.679861
0.520079
0.360288
0.200385
0.0370925
1.75169
1.84549
1.07671
0.984882
0.838092
0.679674
0.520018
0.360274
0.200416
0.0373333
1.74059
1.82476
1.11115
0.98724
0.837815
0.679499
0.519958
0.360255
0.200411
0.0373323
1.73235
1.80665
1.14079
0.989963
0.837636
0.679337
0.519899
0.360233
0.200369
0.0370895
1.72757
1.79111
1.16588
0.992786
0.837529
0.679187
0.519842
0.360209
0.200294
0.0365985
1.7264
1.77804
1.18672
0.995496
0.837462
0.679048
0.519787
0.360183
0.200187
0.0358459
1.72859
1.76732
1.20363
0.997927
0.837409
0.678919
0.519735
0.360155
0.200057
0.0348116
1.73384
1.75888
1.21692
0.999948
0.837344
0.678798
0.519688
0.360129
0.19991
0.0334681
1.74156
1.75267
1.22687
1.00146
0.837249
0.678684
0.519644
0.360104
0.199759
0.0317806
1.74988
1.74863
1.23372
1.00239
0.837105
0.678578
0.519606
0.360083
0.19962
0.0297063
1.75605
1.74678
1.23768
1.00271
0.836908
0.678478
0.519573
0.360066
0.199513
0.0272061
1.75933
1.74682
1.23873
1.0024
0.836668
0.678392
0.519548
0.360056
0.199464
0.024389

VECTORS velocity float
0 0 0
0 0 0
0.831246 -0.0336488 0.000375152
0.704242 -0.00371855 0.000473064
0.746879 -0.000812067 6.05783e-05
0.756408 -0.000177173 1.22505e-05
0.758508 -4.02218e-05 2.57614e-06
0.759005 -1.01548e-05 -1.33351e-06
0.759387 -1.43501e-05 -2.59461e-05
0.769689 -0.000705792 -0.000594245
0 0 0
0 0 0
-0.169046 -0.10026 0.000492606
0.711853 -0.0133559 0.000370828
0.778009 -0.00254026 6.77083e-05
0.788698 -0.000547989 1.3946e-05
0.790989 -0.000124327 2.93896e-06
0.79153 -3.1346e-05 -1.31434e-06
0.791945 -4.4701e-05 -2.76049e-05
0.794862 -0.00133936 -0.000668169
0 0 0
0 0 0
0.84779 -0.169231 0.00169675
0.737799 -0.0228679 0.000312563
0.780245 -0.00429396 6.00292e-05
0.790099 -0.000926126 1.33161e-05
0.792284 -0.000210249 2.85235e-06
0.792801 -5.2789e-05 -1.37772e-06
0.793156 -7.0718e-05 -2.87659e-05
0.795742 -0.00116021 -0.000682306
0 0 0
0 0 0
-0.15401 -0.239851 0.000874904
0.728742 -0.0310314 0.000126735
0.781278 -0.00590491 5.29952e-05
0.790376 -0.00127967 1.22026e-05
0.79238 -0.000291024 2.63402e-06
0.792855 -7.25686e-05 -1.46948e-06
0.793152 -8.55572e-05 -2.9535e-05
0.795826 -0.000956237 -0.000689605
0.454159 -0.0193474 -0.0417894
0.923892 0.00366673 -0.0208639
0.858724 -0.266382 0.0103434
0.751494 -0.0384408 0.00062241
0.783012 -0.00732951 5.48501e-05
0.790682 -0.00159733 1.08475e-05
0.792447 -0.000364158 2.32703e-06
0.792868 -9.00286e-05 -1.57497e-06
0.793114 -9.11432e-05 -2.99997e-05
0.795874 -0.000772527 -0.000693799
0.519104 -0.0519793 -0.0481952
0.997398 0.0054807 -0.017189
0.928206 -0.246115 0.0103571
0.767282 -0.0429498 0.000791487
0.784936 -0.00849803 5.20537e-05
0.791046 -0.00187031 9.15153e-06
0.792526 -0.000427734 1.94447e-06
0.792883 -0.000104727 -1.69212e-06
0.793085 -8.94965e-05 -3.03072e-05
0.795913 -0.000607811 -0.000696342
0.563226 -0.0716136 -0.0548576
0.993719 0.0011821 -0.0136499
0.930366 -0.221309 0.00597622
0.778868 -0.0453544 0.000556885
0.786976 -0.00939008 4.04521e-05
0.791457 -0.00209174 7.1402e-06
0.792617 -0.000480137 1.50507e-06
0.7929 -0.000116338 -1.81653e-06
0.793063 -8.22274e-05 -3.0516e-05
0.795944 -0.000458499 -0.000697903
0.600703 -0.0781203 -0.0613797
0.987758 -0.0032648 -0.0117154
0.928449 -0.196597 0.00339104
0.788738 -0.046085 0.000354712
0.789086 -0.00999524 2.82223e-05
0.791902 -0.00225656 5.00643e-06
0.792716 -0.000520082 1.02711e-06
0.792921 -0.000124644 -1.94475e-06
0.79305 -7.06636e-05 -3.06594e-05
0.795968 -0.000320947 -0.000698856
0.63122 -0.0732349 -0.0671937
0.98272 -0.00648508 -0.0107523
0.926512 -0.173216 0.00185932
0.797368 -0.0454884 0.000211269
0.791198 -0.010315 1.64268e-05
0.792368 -0.00236153 2.83451e-06
0.792822 -0.000546633 5.26651e-07
0.792944 -0.000129531 -2.0736e-06
0.793043 -5.59355e-05 -3.07563e-05
0.795983 -0.000191625 -0.000699404
0.654478 -0.0591078 -0.0719151
0.978331 -0.0080644 -0.0103051
0.924734 -0.151501 0.000888436
0.804868 -0.0438363 0.000109317
0.793253 -0.0103601 5.80228e-06
0.792842 -0.00240525 6.98738e-07
0.792931 -0.000559222 1.84604e-08