# vtk DataFile Version 2.0
TestTestTest
ASCII

DATASET STRUCTURED_GRID
DIMENSIONS 11 21 11
POINTS 2541 float
0 0 0
0.5 0 0
1 0 0
1.5 0 0
2 0 0
2.5 0 0
3 0 0
3.5 0 0
4 0 0
4.5 0 0
5 0 0
0 0.05 0
0.5 0.05 0
1 0.05 0
1.5 0.05 0
2 0.05 0
2.5 0.05 0
3 0.05 0
3.5 0.05 0
4 0.05 0
4.5 0.05 0
5 0.05 0
0 0.1 0
0.5 0.1 0
1 0.1 0
1.5 0.1 0
2 0.1 0
2.5 0.1 0
3 0.1 0
3.5 0.1 0
4 0.1 0
4.5 0.1 0
5 0.1 0
0 0.15 0
0.5 0.15 0
1 0.15 0
1.5 0.15 0
2 0.15 0
2.5 0.15 0
3 0.15 0
3.5 0.15 0
4 0.15 0
4.5 0.15 0
5 0.15 0
0 0.2 0
0.5 0.2 0
1 0.2 0
1.5 0.2 0
2 0.2 0
2.5 0.2 0
3 0.2 0
3.5 0.2 0
4 0.2 0
4.5 0.2 0
5 0.2 0
0 0.25 0
0.5 0.25 0
1 0.25 0
1.5 0.25 0
2 0.25 0
2.5 0.25 0
3 0.25 0
3.5 0.25 0
4 0.25 0
4.5 0.25 0
5 0.25 0
0 0.3 0
0.5 0.3 0
1 0.3 0
1.5 0.3 0
2 0.3 0
2.5 0.3 0
3 0.3 0
3.5 0.3 0
4 0.3 0
4.5 0.3 0
5 0.3 0
0 0.35 0
0.5 0.35 0
1 0.35 0
1.5 0.35 0
2 0.35 0
2.5 0.35 0
3 0.35 0
3.5 0.35 0
4 0.35 0
4.5 0.35 0
5 0.35 0
0 0.4 0
0.5 0.4 0
1 0.4 0
1.5 0.4 0
2 0.4 0
2.5 0.4 0
3 0.4 0
3.5 0.4 0
4 0.4 0
4.5 0.4 0
5 0.4 0
0 0.45 0
0.5 0.45 0
1 0.45 0
1.5 0.45 0
2 0.45 0
2.5 0.45 0
3 0.45 0
3.5 0.45 0
4 0.45 0
4.5 0.45 0
5 0.45 0
0 0.5 0
0.5 0.5 0
1 0.5 0
1.5 0.5 0
2 0.5 0
2.5 0.5 0
3 0.5 0
3.5 0.5 0
4 0.5 0
4.5 0.5 0
5 0.5 0
0 0.55 0
0.5 0.55 0
1 0.55 0
1.5 0.55 0
2 0.55 0
2.5 0.55 0
3 0.55 0
3.5 0.55 0
4 0.55 0
4.5 0.55 0
5 0.55 0
0 0.6 0
0.5 0.6 0
1 0.6 0
1.5 0.6 0
2 0.6 0
2.5 0.6 0
3 0.6 0
3.5 0.6 0
4 0.6 0
4.5 0.6 0
5 0.6 0
0 0.65 0
0.5 0.65 0
1 0.65 0
1.5 0.65 0
2 0.65 0
2.5 0.65 0
3 0.65 0
3.5 0.65 0
4 0.65 0
4.5 0.65 0
5 0.65 0
0 0.7 0
0.5 0.7 0
1 0.7 0
1.5 0.7 0
2 0.7 0
2.5 0.7 0
3 0.7 0
3.5 0.7 0
4 0.7 0
4.5 0.7 0
5 0.7 0
0 0.75 0
0.5 0.75 0
1 0.75 0
1.5 0.75 0
2 0.75 0
2.5 0.75 0
3 0.75 0
3.5 0.75 0
4 0.75 0
4.5 0.75 0
5 0.75 0
0 0.8 0
0.5 0.8 0
1 0.8 0
1.5 0.8 0
2 0.8 0
2.5 0.8 0
3 0.8 0
3.5 0.8 0
4 0.8 0
4.5 0.8 0
5 0.8 0
0 0.85 0
0.5 0.85 0
1 0.85 0
1.5 0.85 0
2 0.85 0
2.5 0.85 0
3 0.85 0
3.5 0.85 0
4 0.85 0
4.5 0.85 0
5 0.85 0
0 0.9 0
0.5 0.9 0
1 0.9 0
1.5 0.9 0
2 0.9 0
2.5 0.9 0
3 0.9 0
3.5 0.9 0
4 0.9 0
4.5 0.9 0
5 0.9 0
0 0.95 0
0.5 0.95 0
1 0.95 0
1.5 0.95 0
2 0.95 0
2.5 0.95 0
3 0.95 0
3.5 0.95 0
4 0.95 0
4.5 0.95 0
5 0.95 0
0 1 0
0.5 1 0
1 1 0
1.5 1 0
2 1 0
2.5 1 0
3 1 0
3.5 1 0
4 1 0
4.5 1 0
5 1 0
0 0 0.1
0.5 0 0.1
1 0 0.1
1.5 0 0.1
2 0 0.1
2.5 0 0.1
3 0 0.1
3.5 0 0.1
4 0 0.1
4.5 0 0.1
5 0 0.1
0 0.05 0.1
0.5 0.05 0.1
1 0.05 0.1
1.5 0.05 0.1
2 0.05 0.1
2.5 0.05 0.1
3 0.05 0.1
3.5 0.05 0.1
4 0.05 0.1
4.5 0.05 0.1
5 0.05 0.1
0 0.1 0.1
0.5 0.1 0.1
1 0.1 0.1
1.5 0.1 0.1
2 0.1 0.1
2.5 0.1 0.1
3 0.1 0.1
3.5 0.1 0.1
4 0.1 0.1
4.5 0.1 0.1
5 0.1 0.1
0 0.15 0.1
0.5 0.15 0.1
1 0.15 0.1
1.5 0.15 0.1
2 0.15 0.1
2.5 0.15 0.1
3 0.15 0.1
3.5 0.15 0.1
4 0.15 0.1
4.5 0.15 0.1
5 0.15 0.1
0 0.2 0.1
0.5 0.2 0.1
1 0.2 0.1
1.5 0.2 0.1
2 0.2 0.1
2.5 0.2 0.1
3 0.2 0.1
3.5 0.2 0.1
4 0.2 0.1
4.5 0.2 0.1
5 0.2 0.1
0 0.25 0.1
0.5 0.25 0.1
1 0.25 0.1
1.5 0.25 0.1
2 0.25 0.1
2.5 0.25 0.1
3 0.25 0.1
3.5 0.25 0.1
4 0.25 0.1
4.5 0.25 0.1
5 0.25 0.1
0 0.3 0.1
0.5 0.3 0.1
1 0.3 0.1
1.5 0.3 0.1
2 0.3 0.1
2.5 0.3 0.1
3 0.3 0.1
3.5 0.3 0.1
4 0.3 0.1
4.5 0.3 0.1
5 0.3 0.1
0 0.35 0.1
0.5 0.35 0.1
1 0.35 0.1
1.5 0.35 0.1
2 0.35 0.1
2.5 0.35 0.1
3 0.35 0.1
3.5 0.35 0.1
4 0.35 0.1
4.5 0.35 0.1
5 0.35 0.1
0 0.4 0.1
0.5 0.4 0.1
1 0.4 0.1
1.5 0.4 0.1
2 0.4 0.1
2.5 0.4 0.1
3 0.4 0.1
3.5 0.4 0.1
4 0.4 0.1
4.5 0.4 0.1
5 0.4 0.1
0 0.45 0.1
0.5 0.45 0.1
1 0.45 0.1
1.5 0.45 0.1
2 0.45 0.1
2.5 0.45 0.1
3 0.45 0.1
3.5 0.45 0.1
4 0.45 0.1
4.5 0.45 0.1
5 0.45 0.1
0 0.5 0.1
0.5 0.5 0.1
1 0.5 0.1
1.5 0.5 0.1
2 0.5 0.1
2.5 0.5 0.1
3 0.5 0.1
3.5 0.5 0.1
4 0.5 0.1
4.5 0.5 0.1
5 0.5 0.1
0 0.55 0.1
0.5 0.55 0.1
1 0.55 0.1
1.5 0.55 0.1
2 0.55 0.1
2.5 0.55 0.1
3 0.55 0.1
3.5 0.55 0.1
4 0.55 0.1
4.5 0.55 0.1
5 0.55 0.1
0 0.6 0.1
0.5 0.6 0.1
1 0.6 0.1
1.5 0.6 0.1
2 0.6 0.1
2.5 0.6 0.1
3 0.6 0.1
3.5 0.6 0.1
4 0.6 0.1
4.5 0.6 0.1
5 0.6 0.1
0 0.65 0.1
0.5 0.65 0.1
1 0.65 0.1
1.5 0.65 0.1
2 0.65 0.1
2.5 0.65 0.1
3 0.65 0.1
3.5 0.65 0.1
4 0.65 0.1
4.5 0.65 0.1
5 0.65 0.1
0 0.7 0.1
0.5 0.7 0.1
1 0.7 0.1
1.5 0.7 0.1
2 0.7 0.1
2.5 0.7 0.1
3 0.7 0.1
3.5 0.7 0.1
4 0.7 0.1
4.5 0.7 0.1
5 0.7 0.1
0 0.75 0.1
0.5 0.75 0.1
1 0.75 0.1
1.5 0.75 0.1
2 0.75 0.1
2.5 0.75 0.1
3 0.75 0.1
3.5 0.75 0.1
4 0.75 0.1
4.5 0.75 0.1
5 0.75 0.1
0 0.8 0.1
0.5 0.8 0.1
1 0.8 0.1
1.5 0.8 0.1
2 0.8 0.1
2.5 0.8 0.1
3 0.8 0.1
3.5 0.8 0.1
4 0.8 0.1
4.5 0.8 0.1
5 0.8 0.1
0 0.85 0.1
0.5 0.85 0.1
1 0.85 0.1
1.5 0.85 0.1
2 0.85 0.1
2.5 0.85 0.1
3 0.85 0.1
3.5 0.85 0.1
4 0.85 0.1
4.5 0.85 0.1
5 0.85 0.1
0 0.9 0.1
0.5 0.9 0.1
1 0.9 0.1
1.5 0.9 0.1
2 0.9 0.1
2.5 0.9 0.1
3 0.9 0.1
3.5 0.9 0.1
4 0.9 0.1
4.5 0.9 0.1
5 0.9 0.1
0 0.95 0.1
0.5 0.95 0.1
1 0.95 0.1
1.5 0.95 0.1
2 0.95 0.1
2.5 0.95 0.1
3 0.95 0.1
3.5 0.95 0.1
4 0.95 0.1
4.5 0.95 0.1
5 0.95 0.1
0 1 0.1
0.5 1 0.1
1 1 0.1
1.5 1 0.1
2 1 0.1
2.5 1 0.1
3 1 0.1
3.5 1 0.1
4 1 0.1
4.5 1 0.1
5 1 0.1
0 0 0.2
0.5 0 0.2
1 0 0.2
1.5 0 0.2
2 0 0.2
2.5 0 0.2
3 0 0.2
3.5 0 0.2
4 0 0.2
4.5 0 0.2
5 0 0.2
0 0.05 0.2
0.5 0.05 0.2
1 0.05 0.2
1.5 0.05 0.2
2 0.05 0.2
2.5 0.05 0.2
3 0.05 0.2
3.5 0.05 0.2
4 0.05 0.2
4.5 0.05 0.2
5 0.05 0.2
0 0.1 0.2
0.5 0.1 0.2
1 0.1 0.2
1.5 0.1 0.2
2 0.1 0.2
2.5 0.1 0.2
3 0.1 0.2
3.5 0.1 0.2
4 0.1 0.2
4.5 0.1 0.2
5 0.1 0.2
0 0.15 0.2
0.5 0.15 0.2
1 0.15 0.2
1.5 0.15 0.2
2 0.15 0.2
2.5 0.15 0.2
3 0.15 0.2
3.5 0.15 0.2
4 0.15 0.2
4.5 0.15 0.2
5 0.15 0.2
0 0.2 0.2
0.5 0.2 0.2
1 0.2 0.2
1.5 0.2 0.2
2 0.2 0.2
2.5 0.2 0.2
3 0.2 0.2
3.5 0.2 0.2
4 0.2 0.2
4.5 0.2 0.2
5 0.2 0.2
0 0.25 0.2
0.5 0.25 0.2
1 0.25 0.2
1.5 0.25 0.2
2 0.25 0.2
2.5 0.25 0.2
3 0.25 0.2
3.5 0.25 0.2
4 0.25 0.2
4.5 0.25 0.2
5 0.25 0.2
0 0.3 0.2
0.5 0.3 0.2
1 0.3 0.2
1.5 0.3 0.2
2 0.3 0.2
2.5 0.3 0.2
3 0.3 0.2
3.5 0.3 0.2
4 0.3 0.2
4.5 0.3 0.2
5 0.3 0.2
0 0.35 0.2
0.5 0.35 0.2
1 0.35 0.2
1.5 0.35 0.2
2 0.35 0.2
2.5 0.35 0.2
3 0.35 0.2
3.5 0.35 0.2
4 0.35 0.2
4.5 0.35 0.2
5 0.35 0.2
0 0.4 0.2
0.5 0.4 0.2
1 0.4 0.2
1.5 0.4 0.2
2 0.4 0.2
2.5 0.4 0.2
3 0.4 0.2
3.5 0.4 0.2
4 0.4 0.2
4.5 0.4 0.2
5 0.4 0.2
0 0.45 0.2
0.5 0.45 0.2
1 0.45 0.2
1.5 0.45 0.2
2 0.45 0.2
2.5 0.45 0.2
3 0.45 0.2
3.5 0.45 0.2
4 0.45 0.2
4.5 0.45 0.2
5 0.45 0.2
0 0.5 0.2
0.5 0.5 0.2
1 0.5 0.2
1.5 0.5 0.2
2 0.5 0.2
2.5 0.5 0.2
3 0.5 0.2
3.5 0.5 0.2
4 0.5 0.2
4.5 0.5 0.2
5 0.5 0.2
0 0.55 0.2
0.5 0.55 0.2
1 0.55 0.2
1.5 0.55 0.2
2 0.55 0.2
2.5 0.55 0.2
3 0.55 0.2
3.5 0.55 0.2
4 0.55 0.2
4.5 0.55 0.2
5 0.55 0.2
0 0.6 0.2
0.5 0.6 0.2
1 0.6 0.2
1.5 0.6 0.2
2 0.6 0.2
2.5 0.6 0.2
3 0.6 0.2
3.5 0.6 0.2
4 0.6 0.2
4.5 0.6 0.2
5 0.6 0.2
0 0.65 0.2
0.5 0.65 0.2
1 0.65 0.2
1.5 0.65 0.2
2 0.65 0.2
2.5 0.65 0.2
3 0.65 0.2
3.5 0.65 0.2
4 0.65 0.2
4.5 0.65 0.2
5 0.65 0.2
0 0.7 0.2
0.5 0.7 0.2
1 0.7 0.2
1.5 0.7 0.2
2 0.7 0.2
2.5 0.7 0.2
3 0.7 0.2
3.5 0.7 0.2
4 0.7 0.2
4.5 0.7 0.2
5 0.7 0.2
0 0.75 0.2
0.5 0.75 0.2
1 0.75 0.2
1.5 0.75 0.2
2 0.75 0.2
2.5 0.75 0.2
3 0.75 0.2
3.5 0.75 0.2
4 0.75 0.2
4.5 0.75 0.2
5 0.75 0.2
0 0.8 0.2
0.5 0.8 0.2
1 0.8 0.2
1.5 0.8 0.2
2 0.8 0.2
2.5 0.8 0.2
3 0.8 0.2
3.5 0.8 0.2
4 0.8 0.2
4.5 0.8 0.2
5 0.8 0.2
0 0.85 0.2
0.5 0.85 0.2
1 0.85 0.2
1.5 0.85 0.2
2 0.85 0.2
2.5 0.85 0.2
3 0.85 0.2
3.5 0.85 0.2
4 0.85 0.2
4.5 0.85 0.2
5 0.85 0.2
0 0.9 0.2
0.5 0.9 0.2
1 0.9 0.2
1.5 0.9 0.2
2 0.9 0.2
2.5 0.9 0.2
3 0.9 0.2
3.5 0.9 0.2
4 0.9 0.2
4.5 0.9 0.2
5 0.9 0.2
0 0.95 0.2
0.5 0.95 0.2
1 0.95 0.2
1.5 0.95 0.2
2 0.95 0.2
2.5 0.95 0.2
3 0.95 0.2
3.5 0.95 0.2
4 0.95 0.2
4.5 0.95 0.2
5 0.95 0.2
0 1 0.2
0.5 1 0.2
1 1 0.2
1.5 1 0.2
2 1 0.2
2.5 1 0.2
3 1 0.2
3.5 1 0.2
4 1 0.2
4.5 1 0.2
5 1 0.2
0 0 0.3
0.5 0 0.3
1 0 0.3
1.5 0 0.3
2 0 0.3
2.5 0 0.3
3 0 0.3
3.5 0 0.3
4 0 0.3
4.5 0 0.3
5 0 0.3
0 0.05 0.3
0.5 0.05 0.3
1 0.05 0.3
1.5 0.05 0.3
2 0.05 0.3
2.5 0.05 0.3
3 0.05 0.3
3.5 0.05 0.3
4 0.05 0.3
4.5 0.05 0.3
5 0.05 0.3
0 0.1 0.3
0.5 0.1 0.3
1 0.1 0.3
1.5 0.1 0.3
2 0.1 0.3
2.5 0.1 0.3
3 0.1 0.3
3.5 0.1 0.3
4 0.1 0.3
4.5 0.1 0.3
5 0.1 0.3
0 0.15 0.3
0.5 0.15 0.3
1 0.15 0.3
1.5 0.15 0.3
2 0.15 0.3
2.5 0.15 0.3
3 0.15 0.3
3.5 0.15 0.3
4 0.15 0.3
4.5 0.15 0.3
5 0.15 0.3
0 0.2 0.3
0.5 0.2 0.3
1 0.2 0.3
1.5 0.2 0.3
2 0.2 0.3
2.5 0.2 0.3
3 0.2 0.3
3.5 0.2 0.3
4 0.2 0.3
4.5 0.2 0.3
5 0.2 0.3
0 0.25 0.3
0.5 0.25 0.3
1 0.25 0.3
1.5 0.25 0.3
2 0.25 0.3
2.5 0.25 0.3
3 0.25 0.3
3.5 0.25 0.3
4 0.25 0.3
4.5 0.25 0.3
5 0.25 0.3
0 0.3 0.3
0.5 0.3 0.3
1 0.3 0.3
1.5 0.3 0.3
2 0.3 0.3
2.5 0.3 0.3
3 0.3 0.3
3.5 0.3 0.3
4 0.3 0.3
4.5 0.3 0.3
5 0.3 0.3
0 0.35 0.3
0.5 0.35 0.3
1 0.35 0.3
1.5 0.35 0.3
2 0.35 0.3
2.5 0.35 0.3
3 0.35 0.3
3.5 0.35 0.3
4 0.35 0.3
4.5 0.35 0.3
5 0.35 0.3
0 0.4 0.3
0.5 0.4 0.3
1 0.4 0.3
1.5 0.4 0.3
2 0.4 0.3
2.5 0.4 0.3
3 0.4 0.3
3.5 0.4 0.3
4 0.4 0.3
4.5 0.4 0.3
5 0.4 0.3
0 0.45 0.3
0.5 0.45 0.3
1 0.45 0.3
1.5 0.45 0.3
2 0.45 0.3
2.5 0.45 0.3
3 0.45 0.3
3.5 0.45 0.3
4 0.45 0.3
4.5 0.45 0.3
5 0.45 0.3
0 0.5 0.3
0.5 0.5 0.3
1 0.5 0.3
1.5 0.5 0.3
2 0.5 0.3
2.5 0.5 0.3
3 0.5 0.3
3.5 0.5 0.3
4 0.5 0.3
4.5 0.5 0.3
5 0.5 0.3
0 0.55 0.3
0.5 0.55 0.3
1 0.55 0.3
1.5 0.55 0.3
2 0.55 0.3
2.5 0.55 0.3
3 0.55 0.3
3.5 0.55 0.3
4 0.55 0.3
4.5 0.55 0.3
5 0.55 0.3
0 0.6 0.3
0.5 0.6 0.3
1 0.6 0.3
1.5 0.6 0.3
2 0.6 0.3
2.5 0.6 0.3
3 0.6 0.3
3.5 0.6 0.3
4 0.6 0.3
4.5 0.6 0.3
5 0.6 0.3
0 0.65 0.3
0.5 0.65 0.3
1 0.65 0.3
1.5 0.65 0.3
2 0.65 0.3
2.5 0.65 0.3
3 0.65 0.3
3.5 0.65 0.3
4 0.65 0.3
4.5 0.65 0.3
5 0.65 0.3
0 0.7 0.3
0.5 0.7 0.3
1 0.7 0.3
1.5 0.7 0.3
2 0.7 0.3
2.5 0.7 0.3
3 0.7 0.3
3.5 0.7 0.3
4 0.7 0.3
4.5 0.7 0.3
5 0.7 0.3
0 0.75 0.3
0.5 0.75 0.3
1 0.75 0.3
1.5 0.75 0.3
2 0.75 0.3
2.5 0.75 0.3
3 0.75 0.3
3.5 0.75 0.3
4 0.75 0.3
4.5 0.75 0.3
5 0.75 0.3
0 0.8 0.3
0.5 0.8 0.3
1 0.8 0.3
1.5 0.8 0.3
2 0.8 0.3
2.5 0.8 0.3
3 0.8 0.3
3.5 0.8 0.3
4 0.8 0.3
4.5 0.8 0.3
5 0.8 0.3
0 0.85 0.3
0.5 0.85 0.3
1 0.85 0.3
1.5 0.85 0.3
2 0.85 0.3
2.5 0.85 0.3
3 0.85 0.3
3.5 0.85 0.3
4 0.85 0.3
4.5 0.85 0.3
5 0.85 0.3
0 0.9 0.3
0.5 0.9 0.3
1 0.9 0.3
1.5 0.9 0.3
2 0.9 0.3
2.5 0.9 0.3
3 0.9 0.3
3.5 0.9 0.3
4 0.9 0.3
4.5 0.9 0.3
5 0.9 0.3
0 0.95 0.3
0.5 0.95 0.3
1 0.95 0.3
1.5 0.95 0.3
2 0.95 0.3
2.5 0.95 0.3
3 0.95 0.3
3.5 0.95 0.3
4 0.95 0.3
4.5 0.95 0.3
5 0.95 0.3
0 1 0.3
0.5 1 0.3
1 1 0.3
1.5 1 0.3
2 1 0.3
2.5 1 0.3
3 1 0.3
3.5 1 0.3
4 1 0.3
4.5 1 0.3
5 1 0.3
0 0 0.4
[...]
CELL_DATA 2000
SCALARS pressure float 1
LOOKUP_TABLE default
0
0
0.876972
0.949797
0.776933
0.623769
0.476016
0.329688
0.183022
0.0237547
0
0
0.874056
0.942763
0.776313
0.623639
0.475986
0.329683
0.183021
0.0258374
0
0
0.841159
0.938637
0.775364
0.623438
0.475938
0.329677
0.183086
0.0279366
0
0
0.827527
0.929317
0.774167
0.623178
0.475876
0.329669
0.18319
0.0297271
1.3377
1.47102
0.830985
0.920401
0.772744
0.622872
0.475802
0.329659
0.183307
0.0311786
1.33541
1.46952
0.849494
0.912473
0.77121
0.622531
0.475718
0.329647
0.183423
0.0323297
1.32934
1.46548
0.873013
0.906259
0.769665
0.622166
0.475625
0.329633
0.183525
0.033213
1.32021
1.45895
0.90162
0.901815
0.768182
0.621789
0.475527
0.329615
0.183605
0.033854
1.31056
1.45081
0.929919
0.89892
0.766816
0.621407
0.475425
0.329593
0.183659
0.0342709
1.30212
1.44223
0.955826
0.897182
0.765585
0.621029
0.475321
0.329569
0.183684
0.0344757
1.29552
1.43393
0.978888
0.896282
0.764488
0.620662
0.475216
0.32954
0.183676
0.0344744
1.29111
1.42632
0.998974
0.89596
0.763516
0.620311
0.475114
0.32951
0.183638
0.034267
1.28929
1.41966
1.01611
0.895998
0.762658
0.619979
0.475015
0.329477
0.18357
0.0338475
1.29012
1.41404
1.0304
0.896218
0.7619
0.619672
0.474922
0.329443
0.183476
0.0332042
1.29346
1.40949
1.04199
0.896476
0.761227
0.61939
0.474835
0.32941
0.183362
0.0323186
1.29916
1.40597
1.05105
0.896658
0.760627
0.619136
0.474757
0.329379
0.183235
0.0311655
1.30675
1.40341
1.05773
0.896677
0.760088
0.618912
0.474689
0.329351
0.183108
0.0297122
1.31455
1.40165
1.0622
0.896479
0.759604
0.618722
0.474632
0.329328
0.182996
0.0279202
1.31993
1.40078
1.06467
0.896085
0.759192
0.618571
0.474588
0.329311
0.182925
0.0258198
1.32201
1.40072
1.06509
0.895543
0.758886
0.618471
0.47456
0.329302
0.182923
0.0237364
0
0
0.886318
0.947714
0.776955
0.62374
0.476008
0.3297
0.183195
0.0277385
0
0
0.881469
0.941269
0.776041
0.623571
0.47597
0.329691
0.183153
0.0309904
0
0
0.849745
0.937206
0.775055
0.623358
0.47592
0.329683
0.183265
0.0333408
0
0
0.854764
0.930453
0.7738
0.623098
0.475859
0.329676
0.183396
0.0351544
1.32388
1.46891
0.807437
0.920666
0.772377
0.622799
0.475787
0.329668
0.183528
0.036624
1.32105
1.48558
0.817582
0.910487
0.770852
0.622468
0.475705
0.329658
0.183652
0.0377891
1.31594
1.48077
0.850688
0.903674
0.76935
0.622117
0.475616
0.329645
0.183759
0.0386828
1.3092
1.4691
0.885108
0.89978
0.767946
0.621753
0.47552
0.329628
0.183843
0.0393309
1.30163
1.4569
0.917936
0.89746
0.766662
0.621385
0.475421
0.329608
0.183899
0.0397523
1.29432
1.44508
0.947696
0.89618
0.765501
0.621021
0.475321
0.329584
0.183924
0.0399593
1.28862
1.43421
0.973511
0.895647
0.764464
0.620667
0.47522
0.329557
0.183917
0.0399581
1.28475
1.42478
0.995528
0.895609
0.763544
0.620329
0.47512
0.329526
0.183878
0.0397486
1.28276
1.41707
1.01404
0.895864
0.762729
0.620009
0.475025
0.329494
0.183808
0.0393247
1.2827
1.41109
1.02932
0.89625
0.762009
0.619712
0.474934
0.329461
0.183712
0.0386743
1.28488
1.40668
1.04158
0.896633
0.761367
0.61944
0.47485
0.329427
0.183592
0.0377784
1.28929
1.40342
1.05105
0.896911
0.760793
0.619194
0.474774
0.329396
0.183458
0.0366113
1.29474
1.40089
1.05792
0.897007
0.760275
0.618977
0.474707
0.329367
0.183316
0.03514
1.3003
1.39894
1.0624
0.896863
0.759808
0.61879
0.47465
0.329343
0.183178
0.033325
1.30507
1.39805
1.06476
0.896428
0.759377
0.618631
0.474604
0.329326
0.183059
0.0309733
1.30848
1.39929
1.065
0.895692
0.758989
0.618507
0.474571
0.329318
0.183097
0.0277206
0
0
0.897162
0.94861
0.777114
0.623718
0.475999
0.329721
0.183482
0.0308792
0
0
0.891682
0.942964
0.776159
0.623538
0.47596
0.329712
0.183452
0.034356
0
0
0.8648
0.939861
0.775188
0.623319
0.475908
0.329706
0.183585
0.0368401
0
0
0.871739
0.934564
0.773994
0.623063
0.475847
0.329701
0.183734
0.0387287
1.30938
1.46032
0.801109
0.925112
0.772615
0.622768
0.475776
0.329694
0.18388
0.0402442
1.30641
1.49508
0.785254
0.91314
0.77107
0.622442
0.475696
0.329685
0.184013
0.0414394
1.30418
1.50285
0.814363
0.903466
0.769463
0.622094
0.475609
0.329674
0.184127
0.042353
1.30524
1.49123
0.859723
0.897734
0.767938
0.621735
0.475516
0.329658
0.184215
0.0430138
1.30823
1.47126
0.90084
0.89516
0.766587
0.621373
0.47542
0.329639
0.184274
0.0434428
1.31122
1.45106
0.935648
0.894269
0.765418
0.621017
0.475322
0.329616
0.1843
0.0436534
1.31298
1.43381
0.965357
0.894203
0.764401
0.620671
0.475224
0.329589
0.184293
0.0436521
1.31266
1.42036
0.990407
0.894579
0.763512
0.620341
0.475127
0.329559
0.184253
0.0434391
1.31051
1.41065
1.01122
0.895177
0.762731
0.620031
0.475034
0.329527
0.184181
0.0430078
1.30652
1.40438
1.02821
0.89584
0.762044
0.619742
0.474945
0.329494
0.18408
0.0423447
1.30079
1.40104
1.04172
0.89645
0.761432
0.619477
0.474863
0.32946
0.183955
0.0414291
1.29452
1.39972
1.05188
0.896911
0.760886
0.619238
0.474789
0.329428
0.183811
0.0402319
1.28941
1.39901
1.05887
0.897144
0.760395
0.619026
0.474723
0.329398
0.183656
0.0387147
1.28768
1.39809
1.06313
0.897075
0.759944
0.618842
0.474667
0.329373
0.1835
0.0368247
1.29011
1.39765
1.0653
0.896647
0.759509
0.618681
0.47462
0.329355
0.18336
0.0343394
1.29395
1.39934
1.06552
0.895873
0.7591
0.618549
0.474584
0.329345
0.183386
0.0308616
0
0
0.902962
0.950245
0.777314
0.623711
0.475994
0.329743
0.183736
0.0328692
0
0
0.897844
0.944887
0.776363
0.62353
0.475954
0.329735
0.183711
0.0363935
0
0
0.871264
0.942371
0.775421
0.623312
0.475903
0.32973
0.183852
0.0389234
0
0
0.875019
0.937739
0.774279
0.623059
0.475843
0.329726
0.184009
0.0408482
1.30194
1.46586
0.800338
0.928566
0.772953
0.62277
0.475773
0.32972
0.184162
0.0423911
1.29993
1.50472
0.772338
0.916193
0.771433
0.622449
0.475694
0.329712
0.184301
0.0436066
1.3012
1.51808
0.786142
0.904953
0.769775
0.622104
0.475608
0.329701
0.184419
0.0445348
1.31024
1.50863
0.828621
0.897283
0.768126
0.621743
0.475516
0.329687
0.184511
0.0452056
1.32594
1.48449
0.878925
0.893589
0.766639
0.621379
0.475421
0.329669
0.184572
0.0456409
1.34317
1.45651
0.922338
0.892444
0.765374
0.62102
0.475324
0.329646
0.184599
0.0458544
1.35617
1.43091
0.957143
0.892505
0.764307
0.620674
0.475228
0.32962
0.184592
0.0458532
1.3617
1.411
0.985648
0.893132
0.763401
0.620345
0.475132
0.32959
0.184551
0.0456373
1.35949
1.39836
1.00919
0.894017
0.762623
0.620037
0.47504
0.329558
0.184477
0.0451998
1.34939
1.39267
1.02806
0.894993
0.761953
0.619752
0.474953
0.329525
0.184374
0.0445267
1.33195
1.39198
1.04239
0.895917
0.76138
0.619492
0.474872
0.329491
0.184244
0.0435965
1.31103
1.39369
1.05266
0.896645
0.760879
0.619259
0.474799
0.329458
0.184094
0.0423791
1.29327
1.39585
1.05959
0.897058
0.760423
0.619052
0.474734
0.329427
0.183932
0.0408345
1.2839
1.39718
1.06377
0.897085
0.759992
0.61887
0.474678
0.329401
0.183767
0.0389082
1.28316
1.39781
1.06585
0.896699
0.759565
0.618709
0.474631
0.329381
0.18362
0.0363772
1.2862
1.39994
1.06608
0.89594
0.759157
0.618577
0.474595
0.329371
0.183641
0.0328519
0
0
0.904669
0.951253
0.777445
0.623711
0.475992
0.329756
0.183879
0.0338241
0
0
0.899359
0.946004
0.7765
0.62353
0.475952
0.329749
0.183855
0.0373601
0
0
0.872043
0.943728
0.775574
0.623313
0.475901
0.329744
0.183999
0.0399053
0
0
0.874536
0.939364
0.774457
0.623062
0.475841
0.32974
0.184159
0.0418445
1.29935
1.47142
0.798569
0.930319
0.773157
0.622776
0.475772
0.329736
0.184315
0.0433993
1.29807
1.51145
0.768334
0.917854
0.771657
0.622458
0.475693
0.329728
0.184457
0.0446243
1.30211
1.52583
0.777361
0.906303
0.77
0.622116
0.475608
0.329718
0.184578
0.0455596
1.31681
1.51663
0.81317
0.897944
0.768317
0.621757
0.475518
0.329704
0.184671
0.0462355
1.34028
1.49099
0.86136
0.893225
0.766748
0.62139
0.475423
0.329686
0.184733
0.046674
1.36613
1.45925
0.909657
0.891334
0.765378
0.621026
0.475326
0.329664
0.184761
0.0468892
1.38698
1.42906
0.951166
0.891183
0.764228
0.620673
0.47523
0.329638
0.184754
0.046888
1.39673
1.40498
0.984102
0.891936
0.763276
0.62034
0.475135
0.329608
0.184712
0.0466705
1.39433
1.39019
1.00937
0.893103
0.762498
0.620033
0.475043
0.329576
0.184638
0.0462297
1.37969
1.38473
1.02849
0.894376
0.761862
0.619752
0.474957
0.329542
0.184532
0.0455516
1.3542
1.38562
1.04275
0.895539
0.761326
0.619497
0.474877
0.329508
0.1844
0.0446143
1.32464
1.38957
1.05303
0.896435
0.760855
0.619267
0.474804
0.329475
0.184248
0.0433874
1.29922
1.39378
1.05996
0.896956
0.76042
0.619063
0.474739
0.329444
0.184082
0.0418309
1.28433
1.39658
1.06412
0.897046
0.760002
0.618882
0.474684
0.329418
0.183915
0.0398903
1.281
1.39797
1.06617
0.896692
0.759582
0.618722
0.474636
0.329398
0.183765
0.0373439
1.2834
1.40041
1.06642
0.895948
0.759176
0.61859
0.4746
0.329386
0.183784
0.033807
0
0
0.904669
0.951253
0.777445
0.623711
0.475992
0.329756
0.183879
0.0338241
0
0
0.899359
0.946004
0.7765
0.62353
0.475952
0.329749
0.183855
0.0373601
0
0
0.872043
0.943728
0.775574
0.623313
0.475901
0.329744
0.183999
0.0399053
0
0
0.874536
0.939364
0.774457
0.623062
0.475841
0.32974
0.184159
0.0418445
1.29935
1.47142
0.798569
0.930319
0.773157
0.622776
0.475772
0.329736
0.184315
0.0433993
1.29807
1.51145
0.768334
0.917854
0.771657
0.622458
0.475693
0.329728
0.184457
0.0446243
1.30211
1.52583
0.777361
0.906303
0.77
0.622116
0.475608
0.329718
0.184578
0.0455596
1.31681
1.51663
0.81317
0.897944
0.768317
0.621757
0.475518
0.329704
0.184671
0.0462355
1.34028
1.49099
0.86136
0.893225
0.766748
0.62139
0.475423
0.329686
0.184733
0.046674
1.36613
1.45925
0.909657
0.891334
0.765378
0.621026
0.475326
0.329664
0.184761
0.0468892
1.38698
1.42906
0.951166
0.891183
0.764228
0.620673
0.47523
0.329638
0.184754
0.046888
1.39673
1.40498
0.984102
0.891936
0.763276
0.62034
0.475135
0.329608
0.184712
0.0466705
1.39433
1.39019
1.00937
0.893103
0.762498
0.620033
0.475043
0.329576
0.184638
0.0462297
1.37969
1.38473
1.02849
0.894376
0.761862
0.619752
0.474957
0.329542
0.184532
0.0455516
1.3542
1.38562
1.04275
0.895539
0.761326
0.619497
0.474877
0.329508
0.1844
0.0446143
1.32464
1.38957
1.05303
0.896435
0.760855
0.619267
0.474804
0.329475
0.184248
0.0433874
1.29922
1.39378
1.05996
0.896956
0.76042
0.619063
0.474739
0.329444
0.184082
0.0418309
1.28433
1.39658
1.06412
0.897046
0.760002
0.618882
0.474684
0.329418
0.183915
0.0398903
1.281
1.39797
1.06617
0.896692
0.759582
0.618722
0.474636
0.329398
0.183765
0.0373439
1.2834
1.40041
1.06642
0.895948
0.759176
0.61859
0.4746
0.329386
0.183784
0.033807
0
0
0.902962
0.950245
0.777314
0.623711
0.475994
0.329743
0.183736
0.0328692
0
0
0.897844
0.944887
0.776363
0.62353
0.475954
0.329735
0.183711
0.0363935
0
0
0.871264
0.942371
0.775421
0.623312
0.475903
0.32973
0.183852
0.0389234
0
0
0.875019
0.937739
0.774279
0.623059
0.475843
0.329726
0.184009
0.0408482
1.30194
1.46586
0.800338
0.928566
0.772953
0.62277
0.475773
0.32972
0.184162
0.0423911
1.29993
1.50472
0.772338
0.916193
0.771433
0.622449
0.475694
0.329712
0.184301
0.0436066
1.3012
1.51808
0.786142
0.904953
0.769775
0.622104
0.475608
0.329701
0.184419
0.0445348
1.31024
1.50863
0.828621
0.897283
0.768126
0.621743
0.475516
0.329687
0.184511
0.0452056
1.32594
1.48449
0.878925
0.893589
0.766639
0.621379
0.475421
0.329669
0.184572
0.0456409
1.34317
1.45651
0.922338
0.892444
0.765374
0.62102
0.475324
0.329646
0.184599
0.0458544
1.35617
1.43091
0.957143
0.892505
0.764307
0.620674
0.475228
0.32962
0.184592
0.0458532
1.3617
1.411
0.985648
0.893132
0.763401
0.620345
0.475132
0.32959
0.184551
0.0456373
1.35949
1.39836
1.00919
0.894017
0.762623
0.620037
0.47504
0.329558
0.184477
0.0451998
1.34939
1.39267
1.02806
0.894993
0.761953
0.619752
0.474953
0.329525
0.184374
0.0445267
1.33195
1.39198
1.04239
0.895917
0.76138
0.619492
0.474872
0.329491
0.184244
0.0435965
1.31103
1.39369
1.05266
0.896645
0.760879
0.619259
0.474799
0.329458
0.184094
0.0423791
1.29327
1.39585
1.05959
0.897058
0.760423
0.619052
0.474734
0.329427
0.183932
0.0408345
1.2839
1.39718
1.06377
0.897085
0.759992
0.61887
0.474678
0.329401
0.183767
0.0389082
1.28316
1.39781
1.06585
0.896699
0.759565
0.618709
0.474631
0.329381
0.18362
0.0363772
1.2862
1.39994
1.06608
0.89594
0.759157
0.618577
0.474595
0.329371
0.183641
0.0328519
0
0
0.897162
0.94861
0.777114
0.623718
0.475999
0.329721
0.183482
0.0308792
0
0
0.891682
0.942964
0.776159
0.623538
0.47596
0.329712
0.183452
0.034356
0
0
0.8648
0.939861
0.775188
0.623319
0.475908
0.329706
0.183585
0.0368401
0
0
0.871739
0.934564
0.773994
0.623063
0.475847
0.329701
0.183734
0.0387287
1.30938
1.46032
0.801109
0.925112
0.772615
0.622768
0.475776
0.329694
0.18388
0.0402442
1.30641
1.49508
0.785254
0.91314
0.77107
0.622442
0.475696
0.329685
0.184013
0.0414394
1.30418
1.50285
0.814363
0.903466
0.769463
0.622094
0.475609
0.329674
0.184127
0.042353
1.30524
1.49123
0.859723
0.897734
0.767938
0.621735
0.475516
0.329658
0.184215
0.0430138
1.30823
1.47126
0.90084
0.89516
0.766587
0.621373
0.47542
0.329639
0.184274
0.0434428
1.31122
1.45106
0.935648
0.894269
0.765418
0.621017
0.475322
0.329616
0.1843
0.0436534
1.31298
1.43381
0.965357
0.894203
0.764401
0.620671
0.475224
0.329589
0.184293
0.0436521
1.31266
1.42036
0.990407
0.894579
0.763512
0.620341
0.475127
0.329559
0.184253
0.0434391
1.31051
1.41065
1.01122
0.895177
0.762731
0.620031
0.475034
0.329527
0.184181
0.0430078
1.30652
1.40438
1.02821
0.89584
0.762044
0.619742
0.474945
0.329494
0.18408
0.0423447
1.30079
1.40104
1.04172
0.89645
0.761432
0.619477
0.474863
0.32946
0.183955
0.0414291
1.29452
1.39972
1.05188
0.896911
0.760886
0.619238
0.474789
0.329428
0.183811
0.0402319
1.28941
1.39901
1.05887
0.897144
0.760395
0.619026
0.474723
0.329398
0.183656
0.0387147
1.28768
1.39809
1.06313
0.897075
0.759944
0.618842
0.474667
0.329373
0.1835
0.0368247
1.29011
1.39765
1.0653
0.896647
0.759509
0.618681
0.47462
0.329355
0.18336
0.0343394
1.29395
1.39934
1.06552
0.895873
0.7591
0.618549
0.474584
0.329345
0.183386
0.0308616
0
0
0.886318
0.947714
0.776955
0.62374
0.476008
0.3297
0.183195
0.0277385
0
0
0.881469
0.941269
0.776041
0.623571
0.47597
0.329691
0.183153
0.0309904
0
0
0.849745
0.937206
0.775055
0.623358
0.47592
0.329683
0.183265
0.0333408
0
0
0.854764
0.930453
0.7738
0.623098
0.475859
0.329676
0.183396
0.0351544
1.32388
1.46891
0.807437
0.920666
0.772377
0.622799
0.475787
0.329668
0.183528
0.036624
1.32105
1.48558
0.817582
0.910487
0.770852
0.622468
0.475705
0.329658
0.183652
0.0377891
1.31594
1.48077
0.850688
0.903674
0.76935
0.622117
0.475616
0.329645
0.183759
0.0386828
1.3092
1.4691
0.885108
0.89978
0.767946
0.621753
0.47552
0.329628
0.183843
0.0393309
1.30163
1.4569
0.917936
0.89746
0.766662
0.621385
0.475421
0.329608
0.183899
0.0397523
1.29432
1.44508
0.947696
0.89618
0.765501
0.621021
0.475321
0.329584
0.183924
0.0399593
1.28862
1.43421
0.973511
0.895647
0.764464
0.620667
0.47522
0.329557
0.183917
0.0399581
1.28475
1.42478
0.995528
0.895609
0.763544
0.620329
0.47512
0.329526
0.183878
0.0397486
1.28276
1.41707
1.01404
0.895864
0.762729
0.620009
0.475025
0.329494
0.183808
0.0393247
1.2827
1.41109
1.02932
0.89625
0.762009
0.619712
0.474934
0.329461
0.183712
0.0386743
1.28488
1.40668
1.04158
0.896633
0.761367
0.61944
0.47485
0.329427
0.183592
0.0377784
1.28929
1.40342
1.05105
0.896911
0.760793
0.619194
0.474774
0.329396
0.183458
0.0366113
1.29474
1.40089
1.05792
0.897007
0.760275
0.618977
0.474707
0.329367
0.183316
0.03514
1.3003
1.39894
1.0624
0.896863
0.759808
0.61879
0.47465
0.329343
0.183178
0.033325
1.30507
1.39805
1.06476
0.896428
0.759377
0.618631
0.474604
0.329326
0.183059
0.0309733
1.30848
1.39929
1.065
0.895692
0.758989
0.618507
0.474571
0.329318
0.183097
0.0277206
0
0
0.876972
0.949797
0.776933
0.623769
0.476016
0.329688
0.183022
0.0237547
0
0
0.874056
0.942763
0.776313
0.623639
0.475986
0.329683
0.183021
0.0258374
0
0
0.841159
0.938637
0.775364
0.623438
0.475938
0.329677
0.183086
0.0279366
0
0
0.827527
0.929317
0.774167
0.623178
0.475876
0.329669
0.18319
0.0297271
1.3377
1.47102
0.830985
0.920401
0.772744
0.622872
0.475802
0.329659
0.183307
0.0311786
1.33541
1.46952
0.849494
0.912473
0.77121
0.622531
0.475718
0.329647
0.183423
0.0323297
1.32934
1.46548
0.873013
0.906259
0.769665
0.622166
0.475625
0.329633
0.183525
0.033213
1.32021
1.45895
0.90162
0.901815
0.768182
0.621789
0.475527
0.329615
0.183605
0.033854
1.31056
1.45081
0.929919
0.89892
0.766816
0.621407
0.475425
0.329593
0.183659
0.0342709
1.30212
1.44223
0.955826
0.897182
0.765585
0.621029
0.475321
0.329569
0.183684
0.0344757
1.29552
1.43393
0.978888
0.896282
0.764488
0.620662
0.475216
0.32954
0.183676
0.0344744
1.29111
1.42632
0.998974
0.89596
0.763516
0.620311
0.475114
0.32951
0.183638
0.034267
1.28929
1.41966
1.01611
0.895998
0.762658
0.619979
0.475015
0.329477
0.18357
0.0338475
1.29012
1.41404
1.0304
0.896218
0.7619
0.619672
0.474922
0.329443
0.183476
0.0332042
1.29346
1.40949
1.04199
0.896476
0.761227
0.61939
0.474835
0.32941
0.183362
0.0323186
1.29916
1.40597
1.05105
0.896658
0.760627
0.619136
0.474757
0.329379
0.183235
0.0311655
1.30675
1.40341
1.05773
0.896677
0.760088
0.618912
0.474689
0.329351
0.183108
0.0297122
1.31455
1.40165
1.0622
0.896479
0.759604
0.618722
0.474632
0.329328
0.182996
0.0279202
1.31993
1.40078
1.06467
0.896085
0.759192
0.618571
0.474588
0.329311
0.182925
0.0258198
1.32201
1.40072
1.06509
0.895543
0.758886
0.618471
0.47456
0.329302
0.182923
0.0237364

VECTORS velocity float
0 0 0
0 0 0
0.712136 -0.0299601 -0.00309254
0.646841 -0.00219135 0.00106105
0.668925 -0.000614392 0.000133717
0.675659 -0.000140603 2.94197e-05
0.677198 -3.1275e-05 6.64194e-06
0.67758 -8.75725e-06 -3.03057e-06
0.677969 -3.18187e-06 -5.08693e-05
0.703499 -0.0017396 -0.00156951
0 0 0
0 0 0
-0.0960385 -0.0887354 -0.00252969
0.667345 -0.011373 0.000853099
0.742097 -0.00223885 0.000197274
0.752963 -0.00047833 4.38518e-05
0.755096 -0.000105393 9.64864e-06
0.755604 -2.91381e-05 -2.46014e-06
0.756428 -4.99837e-05 -5.18358e-05
0.76729 -0.003502 -0.00198769
0 0 0
0 0 0
0.736334 -0.150938 -0.00112786
0.711553 -0.0219559 0.000701864
0.752062 -0.00414428 0.000172401
0.761902 -0.000871945 4.32164e-05
0.764036 -0.000191708 9.8258e-06
0.76455 -5.22017e-05 -2.65001e-06
0.765297 -0.000125841 -5.95579e-05
0.773549 -0.003259 -0.00205785
0 0 0
0 0 0
-0.0819719 -0.215724 -0.00012257
0.686863 -0.0313105 1.83072e-05
0.752907 -0.00596109 0.000139541
0.763086 -0.00125464 4.01478e-05
0.765109 -0.000276009 9.2484e-06
0.765588 -7.38588e-05 -3.0325e-06
0.766192 -0.0001737 -6.59357e-05
0.774332 -0.00271779 -0.00208179
0.383806 -0.0160143 -0.0343843
0.754436 0.00845744 -0.0246875
0.737859 -0.247342 0.0114714
0.715456 -0.0409387 0.00117995
0.755111 -0.00765968 0.00017597
0.763465 -0.00160594 3.76004e-05
0.765252 -0.000353358 8.29216e-06
0.765678 -9.26114e-05 -3.48625e-06
0.766157 -0.000192378 -6.91528e-05
0.774515 -0.00219414 -0.00209268
0.467508 -0.0428751 -0.0427519
0.915556 0.0175518 -0.0264387
0.884824 -0.240096 0.0163803
0.740282 -0.0470504 0.00208752
0.75745 -0.00905064 0.000197139
0.763828 -0.00191017 3.32513e-05
0.76533 -0.000421017 7.00865e-06
0.765692 -0.000107751 -3.99357e-06
0.766069 -0.000189019 -7.1108e-05
0.774628 -0.00172273 -0.00209976
0.515099 -0.0583843 -0.0486066
0.937426 0.0164719 -0.0230996
0.911161 -0.222715 0.011957
0.754053 -0.0503583 0.00176053
0.759568 -0.0101142 0.000161229
0.764226 -0.00215899 2.60635e-05
0.765414 -0.000477062 5.45044e-06
0.765704 -0.000118907 -4.51748e-06
0.765999 -0.000169174 -7.23298e-05
0.774714 -0.00129608 -0.00210442
0.554067 -0.062595 -0.0532703
0.935869 0.0127949 -0.020074
0.912273 -0.201855 0.00682261
0.764065 -0.0515367 0.00115953
0.7617 -0.0108481 0.000113091
0.764661 -0.00234621 1.81658e-05
0.765507 -0.000519986 3.74346e-06
0.765718 -0.00012594 -5.03628e-06
0.76595 -0.000137301 -7.31033e-05
0.774778 -0.000903589 -0.00210742
0.585729 -0.0576206 -0.0570558
0.931586 0.00937789 -0.0182466
0.909957 -0.179977 0.0036211
0.77278 -0.0510189 0.000682091
0.763887 -0.0112504 6.59807e-05
0.765124 -0.00246747 1.01761e-05
0.765607 -0.00054868 1.95931e-06
0.765737 -0.000128888 -5.53535e-06
0.765919 -9.70951e-05 -7.35851e-05
0.77482 -0.000535 -0.00210921
0.610123 -0.0454616 -0.0601475
0.927498 0.00725827 -0.0172753
0.907376 -0.158539 0.00161431
0.780409 -0.0491762 0.000349467
0.766044 -0.0113285 2.50734e-05
0.7656 -0.00252051 2.46489e-06