# vtk DataFile Version 2.0
TestTestTest
ASCII

DATASET STRUCTURED_GRID
DIMENSIONS 11 21 11
POINTS 2541 float
0 0 0
0.5 0 0
1 0 0
1.5 0 0
2 0 0
2.5 0 0
3 0 0
3.5 0 0
4 0 0
4.5 0 0
5 0 0
0 0.05 0
0.5 0.05 0
1 0.05 0
1.5 0.05 0
2 0.05 0
2.5 0.05 0
3 0.05 0
3.5 0.05 0
4 0.05 0
4.5 0.05 0
5 0.05 0
0 0.1 0
0.5 0.1 0
1 0.1 0
1.5 0.1 0
2 0.1 0
2.5 0.1 0
3 0.1 0
3.5 0.1 0
4 0.1 0
4.5 0.1 0
5 0.1 0
0 0.15 0
0.5 0.15 0
1 0.15 0
1.5 0.15 0
2 0.15 0
2.5 0.15 0
3 0.15 0
3.5 0.15 0
4 0.15 0
4.5 0.15 0
5 0.15 0
0 0.2 0
0.5 0.2 0
1 0.2 0
1.5 0.2 0
2 0.2 0
2.5 0.2 0
3 0.2 0
3.5 0.2 0
4 0.2 0
4.5 0.2 0
5 0.2 0
0 0.25 0
0.5 0.25 0
1 0.25 0
1.5 0.25 0
2 0.25 0
2.5 0.25 0
3 0.25 0
3.5 0.25 0
4 0.25 0
4.5 0.25 0
5 0.25 0
0 0.3 0
0.5 0.3 0
1 0.3 0
1.5 0.3 0
2 0.3 0
2.5 0.3 0
3 0.3 0
3.5 0.3 0
4 0.3 0
4.5 0.3 0
5 0.3 0
0 0.35 0
0.5 0.35 0
1 0.35 0
1.5 0.35 0
2 0.35 0
2.5 0.35 0
3 0.35 0
3.5 0.35 0
4 0.35 0
4.5 0.35 0
5 0.35 0
0 0.4 0
0.5 0.4 0
1 0.4 0
1.5 0.4 0
2 0.4 0
2.5 0.4 0
3 0.4 0
3.5 0.4 0
4 0.4 0
4.5 0.4 0
5 0.4 0
0 0.45 0
0.5 0.45 0
1 0.45 0
1.5 0.45 0
2 0.45 0
2.5 0.45 0
3 0.45 0
3.5 0.45 0
4 0.45 0
4.5 0.45 0
5 0.45 0
0 0.5 0
0.5 0.5 0
1 0.5 0
1.5 0.5 0
2 0.5 0
2.5 0.5 0
3 0.5 0
3.5 0.5 0
4 0.5 0
4.5 0.5 0
5 0.5 0
0 0.55 0
0.5 0.55 0
1 0.55 0
1.5 0.55 0
2 0.55 0
2.5 0.55 0
3 0.55 0
3.5 0.55 0
4 0.55 0
4.5 0.55 0
5 0.55 0
0 0.6 0
0.5 0.6 0
1 0.6 0
1.5 0.6 0
2 0.6 0
2.5 0.6 0
3 0.6 0
3.5 0.6 0
4 0.6 0
4.5 0.6 0
5 0.6 0
0 0.65 0
0.5 0.65 0
1 0.65 0
1.5 0.65 0
2 0.65 0
2.5 0.65 0
3 0.65 0
3.5 0.65 0
4 0.65 0
4.5 0.65 0
5 0.65 0
0 0.7 0
0.5 0.7 0
1 0.7 0
1.5 0.7 0
2 0.7 0
2.5 0.7 0
3 0.7 0
3.5 0.7 0
4 0.7 0
4.5 0.7 0
5 0.7 0
0 0.75 0
0.5 0.75 0
1 0.75 0
1.5 0.75 0
2 0.75 0
2.5 0.75 0
3 0.75 0
3.5 0.75 0
4 0.75 0
4.5 0.75 0
5 0.75 0
0 0.8 0
0.5 0.8 0
1 0.8 0
1.5 0.8 0
2 0.8 0
2.5 0.8 0
3 0.8 0
3.5 0.8 0
4 0.8 0
4.5 0.8 0
5 0.8 0
0 0.85 0
0.5 0.85 0
1 0.85 0
1.5 0.85 0
2 0.85 0
2.5 0.85 0
3 0.85 0
3.5 0.85 0
4 0.85 0
4.5 0.85 0
5 0.85 0
0 0.9 0
0.5 0.9 0
1 0.9 0
1.5 0.9 0
2 0.9 0
2.5 0.9 0
3 0.9 0
3.5 0.9 0
4 0.9 0
4.5 0.9 0
5 0.9 0
0 0.95 0
0.5 0.95 0
1 0.95 0
1.5 0.95 0
2 0.95 0
2.5 0.95 0
3 0.95 0
3.5 0.95 0
4 0.95 0
4.5 0.95 0
5 0.95 0
0 1 0
0.5 1 0
1 1 0
1.5 1 0
2 1 0
2.5 1 0
3 1 0
3.5 1 0
4 1 0
4.5 1 0
5 1 0
0 0 0.1
0.5 0 0.1
1 0 0.1
1.5 0 0.1
2 0 0.1
2.5 0 0.1
3 0 0.1
3.5 0 0.1
4 0 0.1
4.5 0 0.1
5 0 0.1
0 0.05 0.1
0.5 0.05 0.1
1 0.05 0.1
1.5 0.05 0.1
2 0.05 0.1
2.5 0.05 0.1
3 0.05 0.1
3.5 0.05 0.1
4 0.05 0.1
4.5 0.05 0.1
5 0.05 0.1
0 0.1 0.1
0.5 0.1 0.1
1 0.1 0.1
1.5 0.1 0.1
2 0.1 0.1
2.5 0.1 0.1
3 0.1 0.1
3.5 0.1 0.1
4 0.1 0.1
4.5 0.1 0.1
5 0.1 0.1
0 0.15 0.1
0.5 0.15 0.1
1 0.15 0.1
1.5 0.15 0.1
2 0.15 0.1
2.5 0.15 0.1
3 0.15 0.1
3.5 0.15 0.1
4 0.15 0.1
4.5 0.15 0.1
5 0.15 0.1
0 0.2 0.1
0.5 0.2 0.1
1 0.2 0.1
1.5 0.2 0.1
2 0.2 0.1
2.5 0.2 0.1
3 0.2 0.1
3.5 0.2 0.1
4 0.2 0.1
4.5 0.2 0.1
5 0.2 0.1
0 0.25 0.1
0.5 0.25 0.1
1 0.25 0.1
1.5 0.25 0.1
2 0.25 0.1
2.5 0.25 0.1
3 0.25 0.1
3.5 0.25 0.1
4 0.25 0.1
4.5 0.25 0.1
5 0.25 0.1
0 0.3 0.1
0.5 0.3 0.1
1 0.3 0.1
1.5 0.3 0.1
2 0.3 0.1
2.5 0.3 0.1
3 0.3 0.1
3.5 0.3 0.1
4 0.3 0.1
4.5 0.3 0.1
5 0.3 0.1
0 0.35 0.1
0.5 0.35 0.1
1 0.35 0.1
1.5 0.35 0.1
2 0.35 0.1
2.5 0.35 0.1
3 0.35 0.1
3.5 0.35 0.1
4 0.35 0.1
4.5 0.35 0.1
5 0.35 0.1
0 0.4 0.1
0.5 0.4 0.1
1 0.4 0.1
1.5 0.4 0.1
2 0.4 0.1
2.5 0.4 0.1
3 0.4 0.1
3.5 0.4 0.1
4 0.4 0.1
4.5 0.4 0.1
5 0.4 0.1
0 0.45 0.1
0.5 0.45 0.1
1 0.45 0.1
1.5 0.45 0.1
2 0.45 0.1
2.5 0.45 0.1
3 0.45 0.1
3.5 0.45 0.1
4 0.45 0.1
4.5 0.45 0.1
5 0.45 0.1
0 0.5 0.1
0.5 0.5 0.1
1 0.5 0.1
1.5 0.5 0.1
2 0.5 0.1
2.5 0.5 0.1
3 0.5 0.1
3.5 0.5 0.1
4 0.5 0.1
4.5 0.5 0.1
5 0.5 0.1
0 0.55 0.1
0.5 0.55 0.1
1 0.55 0.1
1.5 0.55 0.1
2 0.55 0.1
2.5 0.55 0.1
3 0.55 0.1
3.5 0.55 0.1
4 0.55 0.1
4.5 0.55 0.1
5 0.55 0.1
0 0.6 0.1
0.5 0.6 0.1
1 0.6 0.1
1.5 0.6 0.1
2 0.6 0.1
2.5 0.6 0.1
3 0.6 0.1
3.5 0.6 0.1
4 0.6 0.1
4.5 0.6 0.1
5 0.6 0.1
0 0.65 0.1
0.5 0.65 0.1
1 0.65 0.1
1.5 0.65 0.1
2 0.65 0.1
2.5 0.65 0.1
3 0.65 0.1
3.5 0.65 0.1
4 0.65 0.1
4.5 0.65 0.1
5 0.65 0.1
0 0.7 0.1
0.5 0.7 0.1
1 0.7 0.1
1.5 0.7 0.1
2 0.7 0.1
2.5 0.7 0.1
3 0.7 0.1
3.5 0.7 0.1
4 0.7 0.1
4.5 0.7 0.1
5 0.7 0.1
0 0.75 0.1
0.5 0.75 0.1
1 0.75 0.1
1.5 0.75 0.1
2 0.75 0.1
2.5 0.75 0.1
3 0.75 0.1
3.5 0.75 0.1
4 0.75 0.1
4.5 0.75 0.1
5 0.75 0.1
0 0.8 0.1
0.5 0.8 0.1
1 0.8 0.1
1.5 0.8 0.1
2 0.8 0.1
2.5 0.8 0.1
3 0.8 0.1
3.5 0.8 0.1
4 0.8 0.1
4.5 0.8 0.1
5 0.8 0.1
0 0.85 0.1
0.5 0.85 0.1
1 0.85 0.1
1.5 0.85 0.1
2 0.85 0.1
2.5 0.85 0.1
3 0.85 0.1
3.5 0.85 0.1
4 0.85 0.1
4.5 0.85 0.1
5 0.85 0.1
0 0.9 0.1
0.5 0.9 0.1
1 0.9 0.1
1.5 0.9 0.1
2 0.9 0.1
2.5 0.9 0.1
3 0.9 0.1
3.5 0.9 0.1
4 0.9 0.1
4.5 0.9 0.1
5 0.9 0.1
0 0.95 0.1
0.5 0.95 0.1
1 0.95 0.1
1.5 0.95 0.1
2 0.95 0.1
2.5 0.95 0.1
3 0.95 0.1
3.5 0.95 0.1
4 0.95 0.1
4.5 0.95 0.1
5 0.95 0.1
0 1 0.1
0.5 1 0.1
1 1 0.1
1.5 1 0.1
2 1 0.1
2.5 1 0.1
3 1 0.1
3.5 1 0.1
4 1 0.1
4.5 1 0.1
5 1 0.1
0 0 0.2
0.5 0 0.2
1 0 0.2
1.5 0 0.2
2 0 0.2
2.5 0 0.2
3 0 0.2
3.5 0 0.2
4 0 0.2
4.5 0 0.2
5 0 0.2
0 0.05 0.2
0.5 0.05 0.2
1 0.05 0.2
1.5 0.05 0.2
2 0.05 0.2
2.5 0.05 0.2
3 0.05 0.2
3.5 0.05 0.2
4 0.05 0.2
4.5 0.05 0.2
5 0.05 0.2
0 0.1 0.2
0.5 0.1 0.2
1 0.1 0.2
1.5 0.1 0.2
2 0.1 0.2
2.5 0.1 0.2
3 0.1 0.2
3.5 0.1 0.2
4 0.1 0.2
4.5 0.1 0.2
5 0.1 0.2
0 0.15 0.2
0.5 0.15 0.2
1 0.15 0.2
1.5 0.15 0.2
2 0.15 0.2
2.5 0.15 0.2
3 0.15 0.2
3.5 0.15 0.2
4 0.15 0.2
4.5 0.15 0.2
5 0.15 0.2
0 0.2 0.2
0.5 0.2 0.2
1 0.2 0.2
1.5 0.2 0.2
2 0.2 0.2
2.5 0.2 0.2
3 0.2 0.2
3.5 0.2 0.2
4 0.2 0.2
4.5 0.2 0.2
5 0.2 0.2
0 0.25 0.2
0.5 0.25 0.2
1 0.25 0.2
1.5 0.25 0.2
2 0.25 0.2
2.5 0.25 0.2
3 0.25 0.2
3.5 0.25 0.2
4 0.25 0.2
4.5 0.25 0.2
5 0.25 0.2
0 0.3 0.2
0.5 0.3 0.2
1 0.3 0.2
1.5 0.3 0.2
2 0.3 0.2
2.5 0.3 0.2
3 0.3 0.2
3.5 0.3 0.2
4 0.3 0.2
4.5 0.3 0.2
5 0.3 0.2
0 0.35 0.2
0.5 0.35 0.2
1 0.35 0.2
1.5 0.35 0.2
2 0.35 0.2
2.5 0.35 0.2
3 0.35 0.2
3.5 0.35 0.2
4 0.35 0.2
4.5 0.35 0.2
5 0.35 0.2
0 0.4 0.2
0.5 0.4 0.2
1 0.4 0.2
1.5 0.4 0.2
2 0.4 0.2
2.5 0.4 0.2
3 0.4 0.2
3.5 0.4 0.2
4 0.4 0.2
4.5 0.4 0.2
5 0.4 0.2
0 0.45 0.2
0.5 0.45 0.2
1 0.45 0.2
1.5 0.45 0.2
2 0.45 0.2
2.5 0.45 0.2
3 0.45 0.2
3.5 0.45 0.2
4 0.45 0.2
4.5 0.45 0.2
5 0.45 0.2
0 0.5 0.2
0.5 0.5 0.2
1 0.5 0.2
1.5 0.5 0.2
2 0.5 0.2
2.5 0.5 0.2
3 0.5 0.2
3.5 0.5 0.2
4 0.5 0.2
4.5 0.5 0.2
5 0.5 0.2
0 0.55 0.2
0.5 0.55 0.2
1 0.55 0.2
1.5 0.55 0.2
2 0.55 0.2
2.5 0.55 0.2
3 0.55 0.2
3.5 0.55 0.2
4 0.55 0.2
4.5 0.55 0.2
5 0.55 0.2
0 0.6 0.2
0.5 0.6 0.2
1 0.6 0.2
1.5 0.6 0.2
2 0.6 0.2
2.5 0.6 0.2
3 0.6 0.2
3.5 0.6 0.2
4 0.6 0.2
4.5 0.6 0.2
5 0.6 0.2
0 0.65 0.2
0.5 0.65 0.2
1 0.65 0.2
1.5 0.65 0.2
2 0.65 0.2
2.5 0.65 0.2
3 0.65 0.2
3.5 0.65 0.2
4 0.65 0.2
4.5 0.65 0.2
5 0.65 0.2
0 0.7 0.2
0.5 0.7 0.2
1 0.7 0.2
1.5 0.7 0.2
2 0.7 0.2
2.5 0.7 0.2
3 0.7 0.2
3.5 0.7 0.2
4 0.7 0.2
4.5 0.7 0.2
5 0.7 0.2
0 0.75 0.2
0.5 0.75 0.2
1 0.75 0.2
1.5 0.75 0.2
2 0.75 0.2
2.5 0.75 0.2
3 0.75 0.2
3.5 0.75 0.2
4 0.75 0.2
4.5 0.75 0.2
5 0.75 0.2
0 0.8 0.2
0.5 0.8 0.2
1 0.8 0.2
1.5 0.8 0.2
2 0.8 0.2
2.5 0.8 0.2
3 0.8 0.2
3.5 0.8 0.2
4 0.8 0.2
4.5 0.8 0.2
5 0.8 0.2
0 0.85 0.2
0.5 0.85 0.2
1 0.85 0.2
1.5 0.85 0.2
2 0.85 0.2
2.5 0.85 0.2
3 0.85 0.2
3.5 0.85 0.2
4 0.85 0.2
4.5 0.85 0.2
5 0.85 0.2
0 0.9 0.2
0.5 0.9 0.2
1 0.9 0.2
1.5 0.9 0.2
2 0.9 0.2
2.5 0.9 0.2
3 0.9 0.2
3.5 0.9 0.2
4 0.9 0.2
4.5 0.9 0.2
5 0.9 0.2
0 0.95 0.2
0.5 0.95 0.2
1 0.95 0.2
1.5 0.95 0.2
2 0.95 0.2
2.5 0.95 0.2
3 0.95 0.2
3.5 0.95 0.2
4 0.95 0.2
4.5 0.95 0.2
5 0.95 0.2
0 1 0.2
0.5 1 0.2
1 1 0.2
1.5 1 0.2
2 1 0.2
2.5 1 0.2
3 1 0.2
3.5 1 0.2
4 1 0.2
4.5 1 0.2
5 1 0.2
0 0 0.3
0.5 0 0.3
1 0 0.3
1.5 0 0.3
2 0 0.3
2.5 0 0.3
3 0 0.3
3.5 0 0.3
4 0 0.3
4.5 0 0.3
5 0 0.3
0 0.05 0.3
0.5 0.05 0.3
1 0.05 0.3
1.5 0.05 0.3
2 0.05 0.3
2.5 0.05 0.3
3 0.05 0.3
3.5 0.05 0.3
4 0.05 0.3
4.5 0.05 0.3
5 0.05 0.3
0 0.1 0.3
0.5 0.1 0.3
1 0.1 0.3
1.5 0.1 0.3
2 0.1 0.3
2.5 0.1 0.3
3 0.1 0.3
3.5 0.1 0.3
4 0.1 0.3
4.5 0.1 0.3
5 0.1 0.3
0 0.15 0.3
0.5 0.15 0.3
1 0.15 0.3
1.5 0.15 0.3
2 0.15 0.3
2.5 0.15 0.3
3 0.15 0.3
3.5 0.15 0.3
4 0.15 0.3
4.5 0.15 0.3
5 0.15 0.3
0 0.2 0.3
0.5 0.2 0.3
1 0.2 0.3
1.5 0.2 0.3
2 0.2 0.3
2.5 0.2 0.3
3 0.2 0.3
3.5 0.2 0.3
4 0.2 0.3
4.5 0.2 0.3
5 0.2 0.3
0 0.25 0.3
0.5 0.25 0.3
1 0.25 0.3
1.5 0.25 0.3
2 0.25 0.3
2.5 0.25 0.3
3 0.25 0.3
3.5 0.25 0.3
4 0.25 0.3
4.5 0.25 0.3
5 0.25 0.3
0 0.3 0.3
0.5 0.3 0.3
1 0.3 0.3
1.5 0.3 0.3
2 0.3 0.3
2.5 0.3 0.3
3 0.3 0.3
3.5 0.3 0.3
4 0.3 0.3
4.5 0.3 0.3
5 0.3 0.3
0 0.35 0.3
0.5 0.35 0.3
1 0.35 0.3
1.5 0.35 0.3
2 0.35 0.3
2.5 0.35 0.3
3 0.35 0.3
3.5 0.35 0.3
4 0.35 0.3
4.5 0.35 0.3
5 0.35 0.3
0 0.4 0.3
0.5 0.4 0.3
1 0.4 0.3
1.5 0.4 0.3
2 0.4 0.3
2.5 0.4 0.3
3 0.4 0.3
3.5 0.4 0.3
4 0.4 0.3
4.5 0.4 0.3
5 0.4 0.3
0 0.45 0.3
0.5 0.45 0.3
1 0.45 0.3
1.5 0.45 0.3
2 0.45 0.3
2.5 0.45 0.3
3 0.45 0.3
3.5 0.45 0.3
4 0.45 0.3
4.5 0.45 0.3
5 0.45 0.3
0 0.5 0.3
0.5 0.5 0.3
1 0.5 0.3
1.5 0.5 0.3
2 0.5 0.3
2.5 0.5 0.3
3 0.5 0.3
3.5 0.5 0.3
4 0.5 0.3
4.5 0.5 0.3
5 0.5 0.3
0 0.55 0.3
0.5 0.55 0.3
1 0.55 0.3
1.5 0.55 0.3
2 0.55 0.3
2.5 0.55 0.3
3 0.55 0.3
3.5 0.55 0.3
4 0.55 0.3
4.5 0.55 0.3
5 0.55 0.3
0 0.6 0.3
0.5 0.6 0.3
1 0.6 0.3
1.5 0.6 0.3
2 0.6 0.3
2.5 0.6 0.3
3 0.6 0.3
3.5 0.6 0.3
4 0.6 0.3
4.5 0.6 0.3
5 0.6 0.3
0 0.65 0.3
0.5 0.65 0.3
1 0.65 0.3
1.5 0.65 0.3
2 0.65 0.3
2.5 0.65 0.3
3 0.65 0.3
3.5 0.65 0.3
4 0.65 0.3
4.5 0.65 0.3
5 0.65 0.3
0 0.7 0.3
0.5 0.7 0.3
1 0.7 0.3
1.5 0.7 0.3
2 0.7 0.3
2.5 0.7 0.3
3 0.7 0.3
3.5 0.7 0.3
4 0.7 0.3
4.5 0.7 0.3
5 0.7 0.3
0 0.75 0.3
0.5 0.75 0.3
1 0.75 0.3
1.5 0.75 0.3
2 0.75 0.3
2.5 0.75 0.3
3 0.75 0.3
3.5 0.75 0.3
4 0.75 0.3
4.5 0.75 0.3
5 0.75 0.3
0 0.8 0.3
0.5 0.8 0.3
1 0.8 0.3
1.5 0.8 0.3
2 0.8 0.3
2.5 0.8 0.3
3 0.8 0.3
3.5 0.8 0.3
4 0.8 0.3
4.5 0.8 0.3
5 0.8 0.3
0 0.85 0.3
0.5 0.85 0.3
1 0.85 0.3
1.5 0.85 0.3
2 0.85 0.3
2.5 0.85 0.3
3 0.85 0.3
3.5 0.85 0.3
4 0.85 0.3
4.5 0.85 0.3
5 0.85 0.3
0 0.9 0.3
0.5 0.9 0.3
1 0.9 0.3
1.5 0.9 0.3
2 0.9 0.3
2.5 0.9 0.3
3 0.9 0.3
3.5 0.9 0.3
4 0.9 0.3
4.5 0.9 0.3
5 0.9 0.3
0 0.95 0.3
0.5 0.95 0.3
1 0.95 0.3
1.5 0.95 0.3
2 0.95 0.3
2.5 0.95 0.3
3 0.95 0.3
3.5 0.95 0.3
4 0.95 0.3
4.5 0.95 0.3
5 0.95 0.3
0 1 0.3
0.5 1 0.3
1 1 0.3
1.5 1 0.3
2 1 0.3
2.5 1 0.3
3 1 0.3
3.5 1 0.3
4 1 0.3
4.5 1 0.3
5 1 0.3
0 0 0.4
[...]
CELL_DATA 2000
SCALARS pressure float 1
LOOKUP_TABLE default
0
0
0.901252
0.986512
0.808162
0.649667
0.495932
0.343435
0.1905
0.0241083
0
0
0.898999
0.979031
0.807516
0.649535
0.495902
0.34343
0.190516
0.0265086
0
0
0.862995
0.974602
0.806568
0.649342
0.495856
0.343424
0.190594
0.0287839
0
0
0.850372
0.964671
0.805417
0.649102
0.495798
0.343418
0.190709
0.0306922
1.48858
1.62071
0.856961
0.955476
0.804093
0.648824
0.49573
0.34341
0.190835
0.0322413
1.4853
1.61499
0.88143
0.947991
0.802709
0.648518
0.495654
0.343401
0.190958
0.0334717
1.47794
1.60526
0.911384
0.942618
0.801355
0.648196
0.495571
0.343389
0.191067
0.0344173
1.46726
1.59317
0.945224
0.939145
0.800092
0.647864
0.495482
0.343374
0.191153
0.0351041
1.45598
1.58035
0.97754
0.937199
0.798956
0.647532
0.495391
0.343355
0.19121
0.0355512
1.44603
1.56792
1.00682
0.936367
0.797956
0.647206
0.495298
0.343332
0.191237
0.035771
1.43811
1.55646
1.03267
0.936315
0.797084
0.646891
0.495205
0.343307
0.19123
0.0357697
1.43264
1.54624
1.05505
0.936772
0.796329
0.646591
0.495114
0.343278
0.19119
0.0355474
1.43007
1.53739
1.07404
0.937512
0.795673
0.646309
0.495026
0.343247
0.191119
0.0350979
1.43048
1.52993
1.08983
0.938352
0.795101
0.646046
0.494942
0.343215
0.191021
0.0344088
1.4337
1.52383
1.10261
0.939146
0.794594
0.645806
0.494865
0.343183
0.190901
0.0334611
1.43954
1.51907
1.1126
0.939781
0.794136
0.645588
0.494794
0.343153
0.190767
0.0322286
1.44749
1.51561
1.12
0.940166
0.793715
0.645394
0.494732
0.343125
0.190632
0.0306779
1.45576
1.51336
1.12499
0.940241
0.793322
0.645225
0.49468
0.343102
0.19051
0.0287681
1.46166
1.51242
1.12777
0.940001
0.792961
0.645086
0.494638
0.343086
0.190426
0.0264916
1.4643
1.51257
1.1283
0.939491
0.792663
0.644987
0.49461
0.343076
0.190406
0.0240906
0
0
0.910769
0.983308
0.808029
0.649617
0.49592
0.343447
0.190688
0.0284256
0
0
0.906734
0.976698
0.807136
0.649449
0.495883
0.343439
0.190698
0.0318898
0
0
0.872412
0.972495
0.8062
0.649251
0.495836
0.343433
0.190812
0.0343344
0
0
0.881003
0.96526
0.805024
0.649013
0.495779
0.343428
0.190946
0.0362781
1.47303
1.62557
0.825979
0.955038
0.803717
0.648743
0.495713
0.343422
0.191083
0.0378522
1.4691
1.63964
0.843165
0.945296
0.802356
0.64845
0.49564
0.343414
0.191212
0.0391001
1.46242
1.62479
0.885878
0.939853
0.801058
0.648141
0.495559
0.343403
0.191325
0.0400575
1.45375
1.60612
0.927226
0.937186
0.799874
0.647825
0.495475
0.343389
0.191413
0.0407521
1.44392
1.5889
0.965563
0.935915
0.79882
0.647508
0.495387
0.343371
0.191473
0.0412039
1.43427
1.57344
0.9992
0.935589
0.797892
0.647198
0.495298
0.34335
0.1915
0.041426
1.42661
1.55977
1.02799
0.935916
0.797085
0.646898
0.495208
0.343325
0.191493
0.0414248
1.42135
1.54797
1.05235
0.936652
0.796385
0.646612
0.495121
0.343297
0.191453
0.0412003
1.41863
1.53806
1.0727
0.937598
0.795777
0.646343
0.495036
0.343267
0.191381
0.0407462
1.41851
1.52995
1.08939
0.938589
0.795244
0.646093
0.494956
0.343235
0.19128
0.0400494
1.42121
1.52346
1.10275
0.939494
0.794769
0.645863
0.494881
0.343203
0.191156
0.0390899
1.42657
1.51827
1.11305
0.940208
0.794339
0.645653
0.494813
0.343173
0.191017
0.0378401
1.433
1.51416
1.12057
0.940653
0.793939
0.645466
0.494752
0.343145
0.190871
0.0362644
1.43936
1.5112
1.12551
0.940772
0.793562
0.645302
0.494701
0.343121
0.19073
0.0343192
1.44483
1.5098
1.12811
0.940505
0.793194
0.64516
0.494658
0.343104
0.19061
0.0318734
1.44887
1.51088
1.1284
0.939797
0.792817
0.645037
0.494624
0.343094
0.190596
0.0284083
0
0
0.921539
0.983113
0.808037
0.649578
0.495909
0.343468
0.190986
0.0316922
0
0
0.916696
0.977403
0.807126
0.649403
0.49587
0.343461
0.191006
0.0353338
0
0
0.888308
0.974273
0.806223
0.649204
0.495823
0.343457
0.191134
0.03788
0
0
0.898632
0.968603
0.805116
0.648971
0.495767
0.343453
0.19128
0.0398877
1.45728
1.62046
0.816932
0.958739
0.803852
0.648708
0.495703
0.343448
0.191427
0.0415027
1.45289
1.65671
0.802731
0.946968
0.80247
0.648419
0.495631
0.343441
0.191563
0.0427778
1.44879
1.65561
0.845053
0.938499
0.801081
0.648116
0.495553
0.343431
0.191681
0.0437533
1.44782
1.63307
0.901153
0.934634
0.799817
0.647806
0.495471
0.343418
0.191773
0.0444595
1.44852
1.60748
0.948508
0.93363
0.798733
0.647497
0.495386
0.343401
0.191834
0.0449183
1.44911
1.58464
0.987891
0.933838
0.797816
0.647195
0.495299
0.343381
0.191862
0.0451437
1.44857
1.56557
1.02084
0.934646
0.797035
0.646904
0.495213
0.343357
0.191856
0.0451425
1.44655
1.55026
1.0482
0.935779
0.796368
0.646627
0.495128
0.343329
0.191815
0.0449149
1.44368
1.53839
1.07069
0.937042
0.795793
0.646367
0.495046
0.343299
0.191741
0.0444538
1.43994
1.52959
1.08891
0.938287
0.795293
0.646125
0.494967
0.343268
0.191638
0.0437454
1.43504
1.52336
1.10331
0.939393
0.794848
0.645902
0.494895
0.343236
0.191509
0.0427679
1.4297
1.51894
1.11417
0.940269
0.794443
0.645699
0.494828
0.343205
0.191363
0.041491
1.42543
1.51532
1.12173
0.940841
0.794069
0.645517
0.494769
0.343176
0.191207
0.0398744
1.42445
1.51215
1.12645
0.941037
0.79371
0.645356
0.494718
0.343152
0.191054
0.0378653
1.42793
1.51034
1.12883
0.940786
0.793342
0.645213
0.494675
0.343133
0.190919
0.0353179
1.43289
1.51141
1.12902
0.940049
0.792952
0.645085
0.49464
0.343122
0.190895
0.0316754
0
0
0.926669
0.984051
0.808123
0.649558
0.495903
0.34349
0.191245
0.0337494
0
0
0.92188
0.978645
0.807222
0.649384
0.495864
0.343484
0.191268
0.037428
0
0
0.893354
0.976099
0.80635
0.649186
0.495817
0.34348
0.191402
0.0400115
0
0
0.899661
0.971147
0.805294
0.648957
0.495762
0.343477
0.191554
0.0420501
1.44932
1.63038
0.813907
0.961615
0.804083
0.6487
0.495698
0.343473
0.191706
0.0436892
1.44554
1.67156
0.786473
0.94944
0.802727
0.648417
0.495628
0.343467
0.191847
0.0449823
1.44455
1.67681
0.812961
0.939442
0.801293
0.648117
0.495551
0.343458
0.191968
0.0459708
1.45118
1.65535
0.870926
0.933857
0.799922
0.647807
0.49547
0.343446
0.192062
0.046686
1.4645
1.62431
0.929267
0.932086
0.798736
0.647498
0.495386
0.34343
0.192126
0.0471504
1.47965
1.59411
0.976322
0.932228
0.797757
0.647195
0.495301
0.34341
0.192155
0.0473784
1.49091
1.56764
1.01384
0.933184
0.796948
0.646906
0.495216
0.343386
0.192148
0.0473773
1.49511
1.54661
1.04443
0.934525
0.796273
0.646631
0.495133
0.343359
0.192107
0.047147
1.49219
1.53214
1.06938
0.936022
0.795704
0.646374
0.495052
0.343329
0.192031
0.0466805
1.48201
1.52382
1.08922
0.937526
0.795221
0.646136
0.494975
0.343298
0.191925
0.0459631
1.46484
1.51974
1.1043
0.938911
0.794811
0.645918
0.494904
0.343265
0.191794
0.0449727
1.44437
1.51747
1.11521
0.940038
0.79445
0.645722
0.494839
0.343234
0.191643
0.0436778
1.42731
1.51549
1.12266
0.940787
0.794109
0.645544
0.49478
0.343205
0.191482
0.0420371
1.419
1.51327
1.12725
0.941082
0.79377
0.645386
0.49473
0.34318
0.191323
0.0399971
1.41976
1.51164
1.12951
0.940878
0.793412
0.645244
0.494687
0.34316
0.191183
0.0374124
1.42438
1.51277
1.12964
0.940154
0.793023
0.645117
0.494651
0.343149
0.191155
0.0337328
0
0
0.927808
0.984716
0.808194
0.649551
0.4959
0.343504
0.191391
0.0347341
0
0
0.922607
0.979415
0.8073
0.649377
0.495861
0.343498
0.191415
0.0384219
0
0
0.89294
0.97709
0.806444
0.649181
0.495814
0.343494
0.191551
0.0410178
0
0
0.89761
0.972407
0.805411
0.648954
0.495759
0.343492
0.191705
0.0430685
1.44655
1.63828
0.810372
0.963042
0.804225
0.648699
0.495697
0.343488
0.191859
0.0447178
1.44329
1.68085
0.780885
0.950823
0.802891
0.64842
0.495627
0.343483
0.192002
0.0460192
1.44481
1.68747
0.802771
0.940581
0.801465
0.648124
0.495551
0.343474
0.192125
0.047014
1.45689
1.66618
0.855143
0.934451
0.800072
0.647816
0.495471
0.343462
0.192221
0.0477338
1.47783
1.63307
0.914033
0.93189
0.79882
0.647505
0.495388
0.343447
0.192285
0.048201
1.50169
1.59889
0.966618
0.931439
0.797754
0.647199
0.495303
0.343427
0.192314
0.0484305
1.52121
1.56805
1.00953
0.932141
0.796874
0.646904
0.495218
0.343403
0.192308
0.0484294
1.53003
1.5432
1.04335
0.933488
0.79616
0.646627
0.495135
0.343376
0.192266
0.0481977
1.52699
1.52697
1.06962
0.935173
0.795593
0.646371
0.495055
0.343347
0.19219
0.0477283
1.51197
1.51916
1.08974
0.936939
0.795144
0.646137
0.494979
0.343315
0.192083
0.0470065
1.4863
1.51656
1.10481
0.938555
0.794769
0.645924
0.494909
0.343283
0.191949
0.0460097
1.45693
1.51604
1.11573
0.939845
0.794435
0.645731
0.494844
0.343251
0.191797
0.0447065
1.4322
1.51542
1.12316
0.940701
0.794114
0.645556
0.494786
0.343222
0.191633
0.0430556
1.41857
1.51397
1.1277
0.94106
0.793787
0.6454
0.494735
0.343197
0.191472
0.0410035
1.41702
1.51257
1.12991
0.94089
0.793437
0.645259
0.494693
0.343177
0.19133
0.0384065
1.42125
1.51378
1.13002
0.940179
0.793051
0.645131
0.494657
0.343165
0.191302
0.0347177
0
0
0.927808
0.984716
0.808194
0.649551
0.4959
0.343504
0.191391
0.0347341
0
0
0.922607
0.979415
0.8073
0.649377
0.495861
0.343498
0.191415
0.0384219
0
0
0.89294
0.97709
0.806444
0.649181
0.495814
0.343494
0.191551
0.0410178
0
0
0.89761
0.972407
0.805411
0.648954
0.495759
0.343492
0.191705
0.0430685
1.44655
1.63828
0.810372
0.963042
0.804225
0.648699
0.495697
0.343488
0.191859
0.0447178
1.44329
1.68085
0.780885
0.950823
0.802891
0.64842
0.495627
0.343483
0.192002
0.0460192
1.44481
1.68747
0.802771
0.940581
0.801465
0.648124
0.495551
0.343474
0.192125
0.047014
1.45689
1.66618
0.855143
0.934451
0.800072
0.647816
0.495471
0.343462
0.192221
0.0477338
1.47783
1.63307
0.914033
0.93189
0.79882
0.647505
0.495388
0.343447
0.192285
0.048201
1.50169
1.59889
0.966618
0.931439
0.797754
0.647199
0.495303
0.343427
0.192314
0.0484305
1.52121
1.56805
1.00953
0.932141
0.796874
0.646904
0.495218
0.343403
0.192308
0.0484294
1.53003
1.5432
1.04335
0.933488
0.79616
0.646627
0.495135
0.343376
0.192266
0.0481977
1.52699
1.52697
1.06962
0.935173
0.795593
0.646371
0.495055
0.343347
0.19219
0.0477283
1.51197
1.51916
1.08974
0.936939
0.795144
0.646137
0.494979
0.343315
0.192083
0.0470065
1.4863
1.51656
1.10481
0.938555
0.794769
0.645924
0.494909
0.343283
0.191949
0.0460097
1.45693
1.51604
1.11573
0.939845
0.794435
0.645731
0.494844
0.343251
0.191797
0.0447065
1.4322
1.51542
1.12316
0.940701
0.794114
0.645556
0.494786
0.343222
0.191633
0.0430556
1.41857
1.51397
1.1277
0.94106
0.793787
0.6454
0.494735
0.343197
0.191472
0.0410035
1.41702
1.51257
1.12991
0.94089
0.793437
0.645259
0.494693
0.343177
0.19133
0.0384065
1.42125
1.51378
1.13002
0.940179
0.793051
0.645131
0.494657
0.343165
0.191302
0.0347177
0
0
0.926669
0.984051
0.808123
0.649558
0.495903
0.34349
0.191245
0.0337494
0
0
0.92188
0.978645
0.807222
0.649384
0.495864
0.343484
0.191268
0.037428
0
0
0.893354
0.976099
0.80635
0.649186
0.495817
0.34348
0.191402
0.0400115
0
0
0.899661
0.971147
0.805294
0.648957
0.495762
0.343477
0.191554
0.0420501
1.44932
1.63038
0.813907
0.961615
0.804083
0.6487
0.495698
0.343473
0.191706
0.0436892
1.44554
1.67156
0.786473
0.94944
0.802727
0.648417
0.495628
0.343467
0.191847
0.0449823
1.44455
1.67681
0.812961
0.939442
0.801293
0.648117
0.495551
0.343458
0.191968
0.0459708
1.45118
1.65535
0.870926
0.933857
0.799922
0.647807
0.49547
0.343446
0.192062
0.046686
1.4645
1.62431
0.929267
0.932086
0.798736
0.647498
0.495386
0.34343
0.192126
0.0471504
1.47965
1.59411
0.976322
0.932228
0.797757
0.647195
0.495301
0.34341
0.192155
0.0473784
1.49091
1.56764
1.01384
0.933184
0.796948
0.646906
0.495216
0.343386
0.192148
0.0473773
1.49511
1.54661
1.04443
0.934525
0.796273
0.646631
0.495133
0.343359
0.192107
0.047147
1.49219
1.53214
1.06938
0.936022
0.795704
0.646374
0.495052
0.343329
0.192031
0.0466805
1.48201
1.52382
1.08922
0.937526
0.795221
0.646136
0.494975
0.343298
0.191925
0.0459631
1.46484
1.51974
1.1043
0.938911
0.794811
0.645918
0.494904
0.343265
0.191794
0.0449727
1.44437
1.51747
1.11521
0.940038
0.79445
0.645722
0.494839
0.343234
0.191643
0.0436778
1.42731
1.51549
1.12266
0.940787
0.794109
0.645544
0.49478
0.343205
0.191482
0.0420371
1.419
1.51327
1.12725
0.941082
0.79377
0.645386
0.49473
0.34318
0.191323
0.0399971
1.41976
1.51164
1.12951
0.940878
0.793412
0.645244
0.494687
0.34316
0.191183
0.0374124
1.42438
1.51277
1.12964
0.940154
0.793023
0.645117
0.494651
0.343149
0.191155
0.0337328
0
0
0.921539
0.983113
0.808037
0.649578
0.495909
0.343468
0.190986
0.0316922
0
0
0.916696
0.977403
0.807126
0.649403
0.49587
0.343461
0.191006
0.0353338
0
0
0.888308
0.974273
0.806223
0.649204
0.495823
0.343457
0.191134
0.03788
0
0
0.898632
0.968603
0.805116
0.648971
0.495767
0.343453
0.19128
0.0398877
1.45728
1.62046
0.816932
0.958739
0.803852
0.648708
0.495703
0.343448
0.191427
0.0415027
1.45289
1.65671
0.802731
0.946968
0.80247
0.648419
0.495631
0.343441
0.191563
0.0427778
1.44879
1.65561
0.845053
0.938499
0.801081
0.648116
0.495553
0.343431
0.191681
0.0437533
1.44782
1.63307
0.901153
0.934634
0.799817
0.647806
0.495471
0.343418
0.191773
0.0444595
1.44852
1.60748
0.948508
0.93363
0.798733
0.647497
0.495386
0.343401
0.191834
0.0449183
1.44911
1.58464
0.987891
0.933838
0.797816
0.647195
0.495299
0.343381
0.191862
0.0451437
1.44857
1.56557
1.02084
0.934646
0.797035
0.646904
0.495213
0.343357
0.191856
0.0451425
1.44655
1.55026
1.0482
0.935779
0.796368
0.646627
0.495128
0.343329
0.191815
0.0449149
1.44368
1.53839
1.07069
0.937042
0.795793
0.646367
0.495046
0.343299
0.191741
0.0444538
1.43994
1.52959
1.08891
0.938287
0.795293
0.646125
0.494967
0.343268
0.191638
0.0437454
1.43504
1.52336
1.10331
0.939393
0.794848
0.645902
0.494895
0.343236
0.191509
0.0427679
1.4297
1.51894
1.11417
0.940269
0.794443
0.645699
0.494828
0.343205
0.191363
0.041491
1.42543
1.51532
1.12173
0.940841
0.794069
0.645517
0.494769
0.343176
0.191207
0.0398744
1.42445
1.51215
1.12645
0.941037
0.79371
0.645356
0.494718
0.343152
0.191054
0.0378653
1.42793
1.51034
1.12883
0.940786
0.793342
0.645213
0.494675
0.343133
0.190919
0.0353179
1.43289
1.51141
1.12902
0.940049
0.792952
0.645085
0.49464
0.343122
0.190895
0.0316754
0
0
0.910769
0.983308
0.808029
0.649617
0.49592
0.343447
0.190688
0.0284256
0
0
0.906734
0.976698
0.807136
0.649449
0.495883
0.343439
0.190698
0.0318898
0
0
0.872412
0.972495
0.8062
0.649251
0.495836
0.343433
0.190812
0.0343344
0
0
0.881003
0.96526
0.805024
0.649013
0.495779
0.343428
0.190946
0.0362781
1.47303
1.62557
0.825979
0.955038
0.803717
0.648743
0.495713
0.343422
0.191083
0.0378522
1.4691
1.63964
0.843165
0.945296
0.802356
0.64845
0.49564
0.343414
0.191212
0.0391001
1.46242
1.62479
0.885878
0.939853
0.801058
0.648141
0.495559
0.343403
0.191325
0.0400575
1.45375
1.60612
0.927226
0.937186
0.799874
0.647825
0.495475
0.343389
0.191413
0.0407521
1.44392
1.5889
0.965563
0.935915
0.79882
0.647508
0.495387
0.343371
0.191473
0.0412039
1.43427
1.57344
0.9992
0.935589
0.797892
0.647198
0.495298
0.34335
0.1915
0.041426
1.42661
1.55977
1.02799
0.935916
0.797085
0.646898
0.495208
0.343325
0.191493
0.0414248
1.42135
1.54797
1.05235
0.936652
0.796385
0.646612
0.495121
0.343297
0.191453
0.0412003
1.41863
1.53806
1.0727
0.937598
0.795777
0.646343
0.495036
0.343267
0.191381
0.0407462
1.41851
1.52995
1.08939
0.938589
0.795244
0.646093
0.494956
0.343235
0.19128
0.0400494
1.42121
1.52346
1.10275
0.939494
0.794769
0.645863
0.494881
0.343203
0.191156
0.0390899
1.42657
1.51827
1.11305
0.940208
0.794339
0.645653
0.494813
0.343173
0.191017
0.0378401
1.433
1.51416
1.12057
0.940653
0.793939
0.645466
0.494752
0.343145
0.190871
0.0362644
1.43936
1.5112
1.12551
0.940772
0.793562
0.645302
0.494701
0.343121
0.19073
0.0343192
1.44483
1.5098
1.12811
0.940505
0.793194
0.64516
0.494658
0.343104
0.19061
0.0318734
1.44887
1.51088
1.1284
0.939797
0.792817
0.645037
0.494624
0.343094
0.190596
0.0284083
0
0
0.901252
0.986512
0.808162
0.649667
0.495932
0.343435
0.1905
0.0241083
0
0
0.898999
0.979031
0.807516
0.649535
0.495902
0.34343
0.190516
0.0265086
0
0
0.862995
0.974602
0.806568
0.649342
0.495856
0.343424
0.190594
0.0287839
0
0
0.850372
0.964671
0.805417
0.649102
0.495798
0.343418
0.190709
0.0306922
1.48858
1.62071
0.856961
0.955476
0.804093
0.648824
0.49573
0.34341
0.190835
0.0322413
1.4853
1.61499
0.88143
0.947991
0.802709
0.648518
0.495654
0.343401
0.190958
0.0334717
1.47794
1.60526
0.911384
0.942618
0.801355
0.648196
0.495571
0.343389
0.191067
0.0344173
1.46726
1.59317
0.945224
0.939145
0.800092
0.647864
0.495482
0.343374
0.191153
0.0351041
1.45598
1.58035
0.97754
0.937199
0.798956
0.647532
0.495391
0.343355
0.19121
0.0355512
1.44603
1.56792
1.00682
0.936367
0.797956
0.647206
0.495298
0.343332
0.191237
0.035771
1.43811
1.55646
1.03267
0.936315
0.797084
0.646891
0.495205
0.343307
0.19123
0.0357697
1.43264
1.54624
1.05505
0.936772
0.796329
0.646591
0.495114
0.343278
0.19119
0.0355474
1.43007
1.53739
1.07404
0.937512
0.795673
0.646309
0.495026
0.343247
0.191119
0.0350979
1.43048
1.52993
1.08983
0.938352
0.795101
0.646046
0.494942
0.343215
0.191021
0.0344088
1.4337
1.52383
1.10261
0.939146
0.794594
0.645806
0.494865
0.343183
0.190901
0.0334611
1.43954
1.51907
1.1126
0.939781
0.794136
0.645588
0.494794
0.343153
0.190767
0.0322286
1.44749
1.51561
1.12
0.940166
0.793715
0.645394
0.494732
0.343125
0.190632
0.0306779
1.45576
1.51336
1.12499
0.940241
0.793322
0.645225
0.49468
0.343102
0.19051
0.0287681
1.46166
1.51242
1.12777
0.940001
0.792961
0.645086
0.494638
0.343086
0.190426
0.0264916
1.4643
1.51257
1.1283
0.939491
0.792663
0.644987
0.49461
0.343076
0.190406
0.0240906

VECTORS velocity float
0 0 0
0 0 0
0.7615 -0.0317504 -0.00145629
0.672821 -0.00277103 0.000918186
0.702472 -0.0007081 0.000109835
0.710476 -0.000158706 2.28878e-05
0.712281 -3.56717e-05 4.99196e-06
0.712719 -9.5068e-06 -2.36098e-06
0.71317 -1.28296e-05 -4.31773e-05
0.732601 -0.00132927 -0.00115882
0 0 0
0 0 0
-0.12467 -0.0941259 -0.0010987
0.686959 -0.0122373 0.000722386
0.759352 -0.00239262 0.000142313
0.770233 -0.000515297 3.02285e-05
0.772468 -0.000115316 6.53148e-06
0.773002 -3.06421e-05 -2.1413e-06
0.773677 -5.73529e-05 -4.63577e-05
0.780696 -0.00260602 -0.00139908
0 0 0
0 0 0
0.783157 -0.159536 0.000214027
0.725443 -0.0224161 0.000617271
0.765295 -0.00424151 0.000124303
0.775179 -0.000905885 2.92784e-05
0.77736 -0.000202548 6.48673e-06
0.777883 -5.34276e-05 -2.2987e-06
0.778471 -0.000110281 -5.0634e-05
0.784061 -0.00234761 -0.0014365
0 0 0
0 0 0
-0.110275 -0.227086 0.000373627
0.704857 -0.03127 0.000115625
0.766044 -0.00597214 0.00010404
0.775762 -0.00127775 2.70043e-05
0.77779 -0.000285961 6.04198e-06
0.778273 -7.45262e-05 -2.55153e-06
0.778753 -0.000141455 -5.37204e-05
0.784403 -0.0019439 -0.00145187
0.413816 -0.0173936 -0.0376291
0.823904 0.00731327 -0.0242931
0.787263 -0.257103 0.0114383
0.731995 -0.0400947 0.00102608
0.768017 -0.00755147 0.000120649
0.776084 -0.00161509 2.46273e-05
0.777874 -0.000361892 5.3747e-06
0.778303 -9.28602e-05 -2.83421e-06
0.778691 -0.00015275 -5.53629e-05
0.784511 -0.00156903 -0.00146006
0.490814 -0.0466934 -0.0452937
0.956917 0.0142511 -0.0233634
0.909058 -0.244934 0.0148452
0.752822 -0.0455473 0.00155748
0.770119 -0.00884537 0.000124852
0.776446 -0.00190622 2.12306e-05
0.777951 -0.00042809 4.51469e-06
0.778315 -0.000107886 -3.14412e-06
0.778627 -0.000148925 -5.63864e-05
0.78459 -0.00123268 -0.00146524
0.536675 -0.0639627 -0.051521
0.965905 0.0117132 -0.0192742
0.923055 -0.22431 0.00976318
0.76536 -0.0484592 0.00119738
0.772201 -0.00983635 9.83546e-05
0.776853 -0.00214355 1.65634e-05
0.778039 -0.000482789 3.50378e-06
0.778329 -0.000119272 -3.46505e-06
0.778578 -0.000133663 -5.70421e-05
0.784652 -0.000928076 -0.00146854
0.574896 -0.0691063 -0.0569709
0.961376 0.00742203 -0.0165066
0.921923 -0.201518 0.00547671
0.775365 -0.0494262 0.000763481
0.774351 -0.0105157 6.81699e-05
0.777297 -0.0023213 1.15696e-05
0.778136 -0.000524581 2.40035e-06
0.778346 -0.000126856 -3.78665e-06
0.778544 -0.000109944 -5.74684e-05
0.784698 -0.000647675 -0.00147061
0.605944 -0.0641147 -0.0615981
0.956323 0.00380667 -0.0150485
0.919516 -0.178719 0.00296273
0.784133 -0.0488565 0.00044756
0.776527 -0.0108826 3.93049e-05
0.777766 -0.0024356 6.49994e-06
0.77824 -0.000552438 1.24481e-06
0.778367 -0.000130614 -4.10087e-06
0.778525 -8.02684e-05 -5.77417e-05
0.784728 -0.000384226 -0.00147183
0.629735 -0.0510631 -0.0653557
0.951823 0.00168028 -0.0143416
0.917179 -0.156922 0.00137663
0.791787 -0.0470831 0.00022769
0.778658 -0.0109468 1.39991e-05