# vtk DataFile Version 2.0
TestTestTest
ASCII

DATASET STRUCTURED_GRID
DIMENSIONS 11 21 11
POINTS 2541 float
0 0 0
0.5 0 0
1 0 0
1.5 0 0
2 0 0
2.5 0 0
3 0 0
3.5 0 0
4 0 0
4.5 0 0
5 0 0
0 0.05 0
0.5 0.05 0
1 0.05 0
1.5 0.05 0
2 0.05 0
2.5 0.05 0
3 0.05 0
3.5 0.05 0
4 0.05 0
4.5 0.05 0
5 0.05 0
0 0.1 0
0.5 0.1 0
1 0.1 0
1.5 0.1 0
2 0.1 0
2.5 0.1 0
3 0.1 0
3.5 0.1 0
4 0.1 0
4.5 0.1 0
5 0.1 0
0 0.15 0
0.5 0.15 0
1 0.15 0
1.5 0.15 0
2 0.15 0
2.5 0.15 0
3 0.15 0
3.5 0.15 0
4 0.15 0
4.5 0.15 0
5 0.15 0
0 0.2 0
0.5 0.2 0
1 0.2 0
1.5 0.2 0
2 0.2 0
2.5 0.2 0
3 0.2 0
3.5 0.2 0
4 0.2 0
4.5 0.2 0
5 0.2 0
0 0.25 0
0.5 0.25 0
1 0.25 0
1.5 0.25 0
2 0.25 0
2.5 0.25 0
3 0.25 0
3.5 0.25 0
4 0.25 0
4.5 0.25 0
5 0.25 0
0 0.3 0
0.5 0.3 0
1 0.3 0
1.5 0.3 0
2 0.3 0
2.5 0.3 0
3 0.3 0
3.5 0.3 0
4 0.3 0
4.5 0.3 0
5 0.3 0
0 0.35 0
0.5 0.35 0
1 0.35 0
1.5 0.35 0
2 0.35 0
2.5 0.35 0
3 0.35 0
3.5 0.35 0
4 0.35 0
4.5 0.35 0
5 0.35 0
0 0.4 0
0.5 0.4 0
1 0.4 0
1.5 0.4 0
2 0.4 0
2.5 0.4 0
3 0.4 0
3.5 0.4 0
4 0.4 0
4.5 0.4 0
5 0.4 0
0 0.45 0
0.5 0.45 0
1 0.45 0
1.5 0.45 0
2 0.45 0
2.5 0.45 0
3 0.45 0
3.5 0.45 0
4 0.45 0
4.5 0.45 0
5 0.45 0
0 0.5 0
0.5 0.5 0
1 0.5 0
1.5 0.5 0
2 0.5 0
2.5 0.5 0
3 0.5 0
3.5 0.5 0
4 0.5 0
4.5 0.5 0
5 0.5 0
0 0.55 0
0.5 0.55 0
1 0.55 0
1.5 0.55 0
2 0.55 0
2.5 0.55 0
3 0.55 0
3.5 0.55 0
4 0.55 0
4.5 0.55 0
5 0.55 0
0 0.6 0
0.5 0.6 0
1 0.6 0
1.5 0.6 0
2 0.6 0
2.5 0.6 0
3 0.6 0
3.5 0.6 0
4 0.6 0
4.5 0.6 0
5 0.6 0
0 0.65 0
0.5 0.65 0
1 0.65 0
1.5 0.65 0
2 0.65 0
2.5 0.65 0
3 0.65 0
3.5 0.65 0
4 0.65 0
4.5 0.65 0
5 0.65 0
0 0.7 0
0.5 0.7 0
1 0.7 0
1.5 0.7 0
2 0.7 0
2.5 0.7 0
3 0.7 0
3.5 0.7 0
4 0.7 0
4.5 0.7 0
5 0.7 0
0 0.75 0
0.5 0.75 0
1 0.75 0
1.5 0.75 0
2 0.75 0
2.5 0.75 0
3 0.75 0
3.5 0.75 0
4 0.75 0
4.5 0.75 0
5 0.75 0
0 0.8 0
0.5 0.8 0
1 0.8 0
1.5 0.8 0
2 0.8 0
2.5 0.8 0
3 0.8 0
3.5 0.8 0
4 0.8 0
4.5 0.8 0
5 0.8 0
0 0.85 0
0.5 0.85 0
1 0.85 0
1.5 0.85 0
2 0.85 0
2.5 0.85 0
3 0.85 0
3.5 0.85 0
4 0.85 0
4.5 0.85 0
5 0.85 0
0 0.9 0
0.5 0.9 0
1 0.9 0
1.5 0.9 0
2 0.9 0
2.5 0.9 0
3 0.9 0
3.5 0.9 0
4 0.9 0
4.5 0.9 0
5 0.9 0
0 0.95 0
0.5 0.95 0
1 0.95 0
1.5 0.95 0
2 0.95 0
2.5 0.95 0
3 0.95 0
3.5 0.95 0
4 0.95 0
4.5 0.95 0
5 0.95 0
0 1 0
0.5 1 0
1 1 0
1.5 1 0
2 1 0
2.5 1 0
3 1 0
3.5 1 0
4 1 0
4.5 1 0
5 1 0
0 0 0.1
0.5 0 0.1
1 0 0.1
1.5 0 0.1
2 0 0.1
2.5 0 0.1
3 0 0.1
3.5 0 0.1
4 0 0.1
4.5 0 0.1
5 0 0.1
0 0.05 0.1
0.5 0.05 0.1
1 0.05 0.1
1.5 0.05 0.1
2 0.05 0.1
2.5 0.05 0.1
3 0.05 0.1
3.5 0.05 0.1
4 0.05 0.1
4.5 0.05 0.1
5 0.05 0.1
0 0.1 0.1
0.5 0.1 0.1
1 0.1 0.1
1.5 0.1 0.1
2 0.1 0.1
2.5 0.1 0.1
3 0.1 0.1
3.5 0.1 0.1
4 0.1 0.1
4.5 0.1 0.1
5 0.1 0.1
0 0.15 0.1
0.5 0.15 0.1
1 0.15 0.1
1.5 0.15 0.1
2 0.15 0.1
2.5 0.15 0.1
3 0.15 0.1
3.5 0.15 0.1
4 0.15 0.1
4.5 0.15 0.1
5 0.15 0.1
0 0.2 0.1
0.5 0.2 0.1
1 0.2 0.1
1.5 0.2 0.1
2 0.2 0.1
2.5 0.2 0.1
3 0.2 0.1
3.5 0.2 0.1
4 0.2 0.1
4.5 0.2 0.1
5 0.2 0.1
0 0.25 0.1
0.5 0.25 0.1
1 0.25 0.1
1.5 0.25 0.1
2 0.25 0.1
2.5 0.25 0.1
3 0.25 0.1
3.5 0.25 0.1
4 0.25 0.1
4.5 0.25 0.1
5 0.25 0.1
0 0.3 0.1
0.5 0.3 0.1
1 0.3 0.1
1.5 0.3 0.1
2 0.3 0.1
2.5 0.3 0.1
3 0.3 0.1
3.5 0.3 0.1
4 0.3 0.1
4.5 0.3 0.1
5 0.3 0.1
0 0.35 0.1
0.5 0.35 0.1
1 0.35 0.1
1.5 0.35 0.1
2 0.35 0.1
2.5 0.35 0.1
3 0.35 0.1
3.5 0.35 0.1
4 0.35 0.1
4.5 0.35 0.1
5 0.35 0.1
0 0.4 0.1
0.5 0.4 0.1
1 0.4 0.1
1.5 0.4 0.1
2 0.4 0.1
2.5 0.4 0.1
3 0.4 0.1
3.5 0.4 0.1
4 0.4 0.1
4.5 0.4 0.1
5 0.4 0.1
0 0.45 0.1
0.5 0.45 0.1
1 0.45 0.1
1.5 0.45 0.1
2 0.45 0.1
2.5 0.45 0.1
3 0.45 0.1
3.5 0.45 0.1
4 0.45 0.1
4.5 0.45 0.1
5 0.45 0.1
0 0.5 0.1
0.5 0.5 0.1
1 0.5 0.1
1.5 0.5 0.1
2 0.5 0.1
2.5 0.5 0.1
3 0.5 0.1
3.5 0.5 0.1
4 0.5 0.1
4.5 0.5 0.1
5 0.5 0.1
0 0.55 0.1
0.5 0.55 0.1
1 0.55 0.1
1.5 0.55 0.1
2 0.55 0.1
2.5 0.55 0.1
3 0.55 0.1
3.5 0.55 0.1
4 0.55 0.1
4.5 0.55 0.1
5 0.55 0.1
0 0.6 0.1
0.5 0.6 0.1
1 0.6 0.1
1.5 0.6 0.1
2 0.6 0.1
2.5 0.6 0.1
3 0.6 0.1
3.5 0.6 0.1
4 0.6 0.1
4.5 0.6 0.1
5 0.6 0.1
0 0.65 0.1
0.5 0.65 0.1
1 0.65 0.1
1.5 0.65 0.1
2 0.65 0.1
2.5 0.65 0.1
3 0.65 0.1
3.5 0.65 0.1
4 0.65 0.1
4.5 0.65 0.1
5 0.65 0.1
0 0.7 0.1
0.5 0.7 0.1
1 0.7 0.1
1.5 0.7 0.1
2 0.7 0.1
2.5 0.7 0.1
3 0.7 0.1
3.5 0.7 0.1
4 0.7 0.1
4.5 0.7 0.1
5 0.7 0.1
0 0.75 0.1
0.5 0.75 0.1
1 0.75 0.1
1.5 0.75 0.1
2 0.75 0.1
2.5 0.75 0.1
3 0.75 0.1
3.5 0.75 0.1
4 0.75 0.1
4.5 0.75 0.1
5 0.75 0.1
0 0.8 0.1
0.5 0.8 0.1
1 0.8 0.1
1.5 0.8 0.1
2 0.8 0.1
2.5 0.8 0.1
3 0.8 0.1
3.5 0.8 0.1
4 0.8 0.1
4.5 0.8 0.1
5 0.8 0.1
0 0.85 0.1
0.5 0.85 0.1
1 0.85 0.1
1.5 0.85 0.1
2 0.85 0.1
2.5 0.85 0.1
3 0.85 0.1
3.5 0.85 0.1
4 0.85 0.1
4.5 0.85 0.1
5 0.85 0.1
0 0.9 0.1
0.5 0.9 0.1
1 0.9 0.1
1.5 0.9 0.1
2 0.9 0.1
2.5 0.9 0.1
3 0.9 0.1
3.5 0.9 0.1
4 0.9 0.1
4.5 0.9 0.1
5 0.9 0.1
0 0.95 0.1
0.5 0.95 0.1
1 0.95 0.1
1.5 0.95 0.1
2 0.95 0.1
2.5 0.95 0.1
3 0.95 0.1
3.5 0.95 0.1
4 0.95 0.1
4.5 0.95 0.1
5 0.95 0.1
0 1 0.1
0.5 1 0.1
1 1 0.1
1.5 1 0.1
2 1 0.1
2.5 1 0.1
3 1 0.1
3.5 1 0.1
4 1 0.1
4.5 1 0.1
5 1 0.1
0 0 0.2
0.5 0 0.2
1 0 0.2
1.5 0 0.2
2 0 0.2
2.5 0 0.2
3 0 0.2
3.5 0 0.2
4 0 0.2
4.5 0 0.2
5 0 0.2
0 0.05 0.2
0.5 0.05 0.2
1 0.05 0.2
1.5 0.05 0.2
2 0.05 0.2
2.5 0.05 0.2
3 0.05 0.2
3.5 0.05 0.2
4 0.05 0.2
4.5 0.05 0.2
5 0.05 0.2
0 0.1 0.2
0.5 0.1 0.2
1 0.1 0.2
1.5 0.1 0.2
2 0.1 0.2
2.5 0.1 0.2
3 0.1 0.2
3.5 0.1 0.2
4 0.1 0.2
4.5 0.1 0.2
5 0.1 0.2
0 0.15 0.2
0.5 0.15 0.2
1 0.15 0.2
1.5 0.15 0.2
2 0.15 0.2
2.5 0.15 0.2
3 0.15 0.2
3.5 0.15 0.2
4 0.15 0.2
4.5 0.15 0.2
5 0.15 0.2
0 0.2 0.2
0.5 0.2 0.2
1 0.2 0.2
1.5 0.2 0.2
2 0.2 0.2
2.5 0.2 0.2
3 0.2 0.2
3.5 0.2 0.2
4 0.2 0.2
4.5 0.2 0.2
5 0.2 0.2
0 0.25 0.2
0.5 0.25 0.2
1 0.25 0.2
1.5 0.25 0.2
2 0.25 0.2
2.5 0.25 0.2
3 0.25 0.2
3.5 0.25 0.2
4 0.25 0.2
4.5 0.25 0.2
5 0.25 0.2
0 0.3 0.2
0.5 0.3 0.2
1 0.3 0.2
1.5 0.3 0.2
2 0.3 0.2
2.5 0.3 0.2
3 0.3 0.2
3.5 0.3 0.2
4 0.3 0.2
4.5 0.3 0.2
5 0.3 0.2
0 0.35 0.2
0.5 0.35 0.2
1 0.35 0.2
1.5 0.35 0.2
2 0.35 0.2
2.5 0.35 0.2
3 0.35 0.2
3.5 0.35 0.2
4 0.35 0.2
4.5 0.35 0.2
5 0.35 0.2
0 0.4 0.2
0.5 0.4 0.2
1 0.4 0.2
1.5 0.4 0.2
2 0.4 0.2
2.5 0.4 0.2
3 0.4 0.2
3.5 0.4 0.2
4 0.4 0.2
4.5 0.4 0.2
5 0.4 0.2
0 0.45 0.2
0.5 0.45 0.2
1 0.45 0.2
1.5 0.45 0.2
2 0.45 0.2
2.5 0.45 0.2
3 0.45 0.2
3.5 0.45 0.2
4 0.45 0.2
4.5 0.45 0.2
5 0.45 0.2
0 0.5 0.2
0.5 0.5 0.2
1 0.5 0.2
1.5 0.5 0.2
2 0.5 0.2
2.5 0.5 0.2
3 0.5 0.2
3.5 0.5 0.2
4 0.5 0.2
4.5 0.5 0.2
5 0.5 0.2
0 0.55 0.2
0.5 0.55 0.2
1 0.55 0.2
1.5 0.55 0.2
2 0.55 0.2
2.5 0.55 0.2
3 0.55 0.2
3.5 0.55 0.2
4 0.55 0.2
4.5 0.55 0.2
5 0.55 0.2
0 0.6 0.2
0.5 0.6 0.2
1 0.6 0.2
1.5 0.6 0.2
2 0.6 0.2
2.5 0.6 0.2
3 0.6 0.2
3.5 0.6 0.2
4 0.6 0.2
4.5 0.6 0.2
5 0.6 0.2
0 0.65 0.2
0.5 0.65 0.2
1 0.65 0.2
1.5 0.65 0.2
2 0.65 0.2
2.5 0.65 0.2
3 0.65 0.2
3.5 0.65 0.2
4 0.65 0.2
4.5 0.65 0.2
5 0.65 0.2
0 0.7 0.2
0.5 0.7 0.2
1 0.7 0.2
1.5 0.7 0.2
2 0.7 0.2
2.5 0.7 0.2
3 0.7 0.2
3.5 0.7 0.2
4 0.7 0.2
4.5 0.7 0.2
5 0.7 0.2
0 0.75 0.2
0.5 0.75 0.2
1 0.75 0.2
1.5 0.75 0.2
2 0.75 0.2
2.5 0.75 0.2
3 0.75 0.2
3.5 0.75 0.2
4 0.75 0.2
4.5 0.75 0.2
5 0.75 0.2
0 0.8 0.2
0.5 0.8 0.2
1 0.8 0.2
1.5 0.8 0.2
2 0.8 0.2
2.5 0.8 0.2
3 0.8 0.2
3.5 0.8 0.2
4 0.8 0.2
4.5 0.8 0.2
5 0.8 0.2
0 0.85 0.2
0.5 0.85 0.2
1 0.85 0.2
1.5 0.85 0.2
2 0.85 0.2
2.5 0.85 0.2
3 0.85 0.2
3.5 0.85 0.2
4 0.85 0.2
4.5 0.85 0.2
5 0.85 0.2
0 0.9 0.2
0.5 0.9 0.2
1 0.9 0.2
1.5 0.9 0.2
2 0.9 0.2
2.5 0.9 0.2
3 0.9 0.2
3.5 0.9 0.2
4 0.9 0.2
4.5 0.9 0.2
5 0.9 0.2
0 0.95 0.2
0.5 0.95 0.2
1 0.95 0.2
1.5 0.95 0.2
2 0.95 0.2
2.5 0.95 0.2
3 0.95 0.2
3.5 0.95 0.2
4 0.95 0.2
4.5 0.95 0.2
5 0.95 0.2
0 1 0.2
0.5 1 0.2
1 1 0.2
1.5 1 0.2
2 1 0.2
2.5 1 0.2
3 1 0.2
3.5 1 0.2
4 1 0.2
4.5 1 0.2
5 1 0.2
0 0 0.3
0.5 0 0.3
1 0 0.3
1.5 0 0.3
2 0 0.3
2.5 0 0.3
3 0 0.3
3.5 0 0.3
4 0 0.3
4.5 0 0.3
5 0 0.3
0 0.05 0.3
0.5 0.05 0.3
1 0.05 0.3
1.5 0.05 0.3
2 0.05 0.3
2.5 0.05 0.3
3 0.05 0.3
3.5 0.05 0.3
4 0.05 0.3
4.5 0.05 0.3
5 0.05 0.3
0 0.1 0.3
0.5 0.1 0.3
1 0.1 0.3
1.5 0.1 0.3
2 0.1 0.3
2.5 0.1 0.3
3 0.1 0.3
3.5 0.1 0.3
4 0.1 0.3
4.5 0.1 0.3
5 0.1 0.3
0 0.15 0.3
0.5 0.15 0.3
1 0.15 0.3
1.5 0.15 0.3
2 0.15 0.3
2.5 0.15 0.3
3 0.15 0.3
3.5 0.15 0.3
4 0.15 0.3
4.5 0.15 0.3
5 0.15 0.3
0 0.2 0.3
0.5 0.2 0.3
1 0.2 0.3
1.5 0.2 0.3
2 0.2 0.3
2.5 0.2 0.3
3 0.2 0.3
3.5 0.2 0.3
4 0.2 0.3
4.5 0.2 0.3
5 0.2 0.3
0 0.25 0.3
0.5 0.25 0.3
1 0.25 0.3
1.5 0.25 0.3
2 0.25 0.3
2.5 0.25 0.3
3 0.25 0.3
3.5 0.25 0.3
4 0.25 0.3
4.5 0.25 0.3
5 0.25 0.3
0 0.3 0.3
0.5 0.3 0.3
1 0.3 0.3
1.5 0.3 0.3
2 0.3 0.3
2.5 0.3 0.3
3 0.3 0.3
3.5 0.3 0.3
4 0.3 0.3
4.5 0.3 0.3
5 0.3 0.3
0 0.35 0.3
0.5 0.35 0.3
1 0.35 0.3
1.5 0.35 0.3
2 0.35 0.3
2.5 0.35 0.3
3 0.35 0.3
3.5 0.35 0.3
4 0.35 0.3
4.5 0.35 0.3
5 0.35 0.3
0 0.4 0.3
0.5 0.4 0.3
1 0.4 0.3
1.5 0.4 0.3
2 0.4 0.3
2.5 0.4 0.3
3 0.4 0.3
3.5 0.4 0.3
4 0.4 0.3
4.5 0.4 0.3
5 0.4 0.3
0 0.45 0.3
0.5 0.45 0.3
1 0.45 0.3
1.5 0.45 0.3
2 0.45 0.3
2.5 0.45 0.3
3 0.45 0.3
3.5 0.45 0.3
4 0.45 0.3
4.5 0.45 0.3
5 0.45 0.3
0 0.5 0.3
0.5 0.5 0.3
1 0.5 0.3
1.5 0.5 0.3
2 0.5 0.3
2.5 0.5 0.3
3 0.5 0.3
3.5 0.5 0.3
4 0.5 0.3
4.5 0.5 0.3
5 0.5 0.3
0 0.55 0.3
0.5 0.55 0.3
1 0.55 0.3
1.5 0.55 0.3
2 0.55 0.3
2.5 0.55 0.3
3 0.55 0.3
3.5 0.55 0.3
4 0.55 0.3
4.5 0.55 0.3
5 0.55 0.3
0 0.6 0.3
0.5 0.6 0.3
1 0.6 0.3
1.5 0.6 0.3
2 0.6 0.3
2.5 0.6 0.3
3 0.6 0.3
3.5 0.6 0.3
4 0.6 0.3
4.5 0.6 0.3
5 0.6 0.3
0 0.65 0.3
0.5 0.65 0.3
1 0.65 0.3
1.5 0.65 0.3
2 0.65 0.3
2.5 0.65 0.3
3 0.65 0.3
3.5 0.65 0.3
4 0.65 0.3
4.5 0.65 0.3
5 0.65 0.3
0 0.7 0.3
0.5 0.7 0.3
1 0.7 0.3
1.5 0.7 0.3
2 0.7 0.3
2.5 0.7 0.3
3 0.7 0.3
3.5 0.7 0.3
4 0.7 0.3
4.5 0.7 0.3
5 0.7 0.3
0 0.75 0.3
0.5 0.75 0.3
1 0.75 0.3
1.5 0.75 0.3
2 0.75 0.3
2.5 0.75 0.3
3 0.75 0.3
3.5 0.75 0.3
4 0.75 0.3
4.5 0.75 0.3
5 0.75 0.3
0 0.8 0.3
0.5 0.8 0.3
1 0.8 0.3
1.5 0.8 0.3
2 0.8 0.3
2.5 0.8 0.3
3 0.8 0.3
3.5 0.8 0.3
4 0.8 0.3
4.5 0.8 0.3
5 0.8 0.3
0 0.85 0.3
0.5 0.85 0.3
1 0.85 0.3
1.5 0.85 0.3
2 0.85 0.3
2.5 0.85 0.3
3 0.85 0.3
3.5 0.85 0.3
4 0.85 0.3
4.5 0.85 0.3
5 0.85 0.3
0 0.9 0.3
0.5 0.9 0.3
1 0.9 0.3
1.5 0.9 0.3
2 0.9 0.3
2.5 0.9 0.3
3 0.9 0.3
3.5 0.9 0.3
4 0.9 0.3
4.5 0.9 0.3
5 0.9 0.3
0 0.95 0.3
0.5 0.95 0.3
1 0.95 0.3
1.5 0.95 0.3
2 0.95 0.3
2.5 0.95 0.3
3 0.95 0.3
3.5 0.95 0.3
4 0.95 0.3
4.5 0.95 0.3
5 0.95 0.3
0 1 0.3
0.5 1 0.3
1 1 0.3
1.5 1 0.3
2 1 0.3
2.5 1 0.3
3 1 0.3
3.5 1 0.3
4 1 0.3
4.5 1 0.3
5 1 0.3
0 0 0.4
[...]
CELL_DATA 2000
SCALARS pressure float 1
LOOKUP_TABLE default
0
0
0.857288
0.926728
0.757748
0.60794
0.463842
0.321258
0.178385
0.0234928
0
0
0.854174
0.919955
0.757143
0.607812
0.463812
0.321253
0.178375
0.0253888
0
0
0.823115
0.91602
0.756202
0.607609
0.463764
0.321246
0.178434
0.0273828
0
0
0.809387
0.907038
0.754986
0.607341
0.4637
0.321238
0.178534
0.0291073
1.26198
1.3985
0.811602
0.898309
0.753516
0.607022
0.463624
0.321227
0.178648
0.030505
1.26015
1.39861
0.827374
0.890212
0.75191
0.606664
0.463536
0.321215
0.17876
0.0316121
1.2547
1.39687
0.848134
0.883622
0.750273
0.60628
0.46344
0.321199
0.178859
0.032461
1.24632
1.39276
0.874374
0.878724
0.748684
0.60588
0.463337
0.32118
0.178937
0.0330766
1.23744
1.38664
0.900961
0.875396
0.747207
0.605475
0.463231
0.321158
0.17899
0.0334767
1.22971
1.37969
0.925492
0.87326
0.745866
0.605074
0.463121
0.321132
0.179013
0.0336732
1.2237
1.37267
0.947437
0.871996
0.744663
0.604683
0.463012
0.321103
0.179005
0.0336719
1.21976
1.3661
0.966633
0.871347
0.743591
0.604308
0.462905
0.321071
0.178967
0.0334728
1.21826
1.36031
0.983069
0.871097
0.742641
0.603954
0.462801
0.321038
0.178901
0.0330701
1.21924
1.35543
0.996821
0.871066
0.741798
0.603625
0.462703
0.321004
0.178809
0.0324521
1.22258
1.35152
1.008
0.871109
0.741051
0.603324
0.462613
0.32097
0.178697
0.031601
1.22814
1.34852
1.01674
0.87111
0.740386
0.603054
0.462531
0.320939
0.178574
0.0304918
1.23545
1.34634
1.02318
0.870984
0.739794
0.602817
0.46246
0.320911
0.178451
0.0290923
1.24292
1.34477
1.02749
0.870681
0.73927
0.602616
0.462401
0.320888
0.178343
0.0273663
1.24796
1.34386
1.02987
0.870235
0.738838
0.602461
0.462357
0.320871
0.178278
0.0253712
1.24971
1.34364
1.03024
0.86969
0.73853
0.602361
0.462329
0.320862
0.178285
0.0234745
0
0
0.866291
0.925291
0.757855
0.607923
0.463836
0.321269
0.178551
0.0272903
0
0
0.861165
0.918976
0.75695
0.607759
0.4638
0.32126
0.178475
0.0303496
0
0
0.830743
0.915012
0.755936
0.607539
0.463748
0.321252
0.178584
0.0326545
0
0
0.834382
0.908492
0.754645
0.607268
0.463685
0.321244
0.178715
0.0343971
1.24924
1.39458
0.790315
0.898886
0.753165
0.606955
0.46361
0.321235
0.178846
0.0358087
1.24696
1.41153
0.798137
0.888562
0.751559
0.606607
0.463525
0.321224
0.178968
0.0369277
1.24266
1.41022
0.826971
0.881153
0.749953
0.606235
0.463431
0.32121
0.179073
0.0377859
1.23692
1.40157
0.858304
0.876637
0.748438
0.605848
0.463331
0.321192
0.179155
0.0384081
1.23053
1.39146
0.888699
0.873808
0.74704
0.605455
0.463227
0.321171
0.17921
0.0388125
1.22437
1.3811
0.916802
0.872087
0.745766
0.605066
0.463121
0.321145
0.179234
0.0390111
1.21961
1.37128
0.941436
0.871176
0.744619
0.604686
0.463015
0.321117
0.179227
0.0390098
1.21638
1.36272
0.962563
0.870814
0.743595
0.604323
0.46291
0.321086
0.179188
0.0388087
1.21471
1.35585
0.98042
0.870789
0.742685
0.60398
0.46281
0.321053
0.17912
0.0384018
1.21462
1.35076
0.995224
0.870935
0.741878
0.603661
0.462714
0.321019
0.179025
0.0377772
1.21647
1.34726
1.00716
0.871116
0.741161
0.603369
0.462626
0.320985
0.178907
0.0369169
1.22031
1.34491
1.01639
0.871226
0.740521
0.603106
0.462546
0.320953
0.178774
0.0357959
1.2251
1.34317
1.02309
0.871188
0.739949
0.602874
0.462476
0.320924
0.178634
0.0343826
1.23007
1.34177
1.02745
0.870946
0.739441
0.602677
0.462417
0.3209
0.178494
0.0326385
1.2343
1.34114
1.02978
0.87046
0.738984
0.602511
0.46237
0.320884
0.178379
0.0303324
1.23728
1.34235
1.03005
0.869744
0.738601
0.602389
0.462338
0.320876
0.178452
0.0272723
0
0
0.876898
0.926766
0.758106
0.607912
0.463828
0.32129
0.178833
0.0303599
0
0
0.871178
0.921192
0.757146
0.607734
0.46379
0.321281
0.178769
0.0336689
0
0
0.845019
0.918119
0.75613
0.607504
0.463737
0.321274
0.178904
0.0361342
0
0
0.850677
0.91299
0.754892
0.607236
0.463674
0.321268
0.179057
0.0379589
1.23558
1.38469
0.784478
0.903679
0.753456
0.606926
0.4636
0.321261
0.179204
0.039419
1.23335
1.41838
0.768469
0.891614
0.751831
0.606581
0.463516
0.321251
0.179337
0.0405698
1.23214
1.42847
0.792974
0.88145
0.750114
0.606212
0.463424
0.321239
0.17945
0.0414488
1.2343
1.42069
0.833387
0.874904
0.748458
0.605829
0.463327
0.321222
0.179537
0.0420842
1.23851
1.40327
0.871442
0.871518
0.74697
0.605442
0.463226
0.321202
0.179595
0.0424966
1.24272
1.38413
0.904151
0.870051
0.745673
0.60506
0.463122
0.321178
0.17962
0.0426989
1.24558
1.36746
0.932449
0.86958
0.744542
0.604688
0.463018
0.32115
0.179613
0.0426977
1.24606
1.35462
0.956607
0.869641
0.743548
0.604333
0.462917
0.321119
0.179573
0.0424929
1.24424
1.34571
0.976855
0.869977
0.742672
0.603999
0.462818
0.321086
0.179502
0.0420782
1.24009
1.34045
0.993518
0.870423
0.741899
0.603689
0.462725
0.321052
0.179402
0.0414404
1.23389
1.33838
1.00685
0.870852
0.741212
0.603404
0.462639
0.321018
0.179278
0.0405593
1.22701
1.33855
1.01691
0.871165
0.740602
0.603148
0.462561
0.320985
0.179133
0.0394066
1.22128
1.33937
1.0238
0.871276
0.740059
0.602923
0.462492
0.320955
0.178977
0.0379448
1.21889
1.33974
1.02797
0.871108
0.739568
0.602728
0.462434
0.320929
0.178816
0.0361187
1.22054
1.34012
1.03016
0.870624
0.739102
0.602557
0.462385
0.320911
0.178675
0.0336521
1.22364
1.34205
1.03046
0.869873
0.738696
0.602427
0.46235
0.320902
0.178735
0.0303422
0
0
0.882812
0.928761
0.758372
0.607913
0.463824
0.321312
0.179084
0.0323113
0
0
0.877588
0.923466
0.757413
0.607733
0.463786
0.321304
0.179025
0.0356739
0
0
0.851899
0.920977
0.756423
0.607503
0.463732
0.321298
0.17917
0.0381905
0
0
0.854723
0.916476
0.75524
0.607238
0.46367
0.321293
0.179333
0.0400547
1.22851
1.38835
0.784428
0.907416
0.753857
0.606935
0.463597
0.321287
0.179489
0.0415441
1.22743
1.42579
0.756681
0.894945
0.752255
0.606595
0.463514
0.321279
0.179629
0.0427165
1.22995
1.44089
0.766363
0.883191
0.750485
0.606228
0.463424
0.321267
0.179747
0.043611
1.24024
1.43523
0.802574
0.874612
0.748696
0.605842
0.463328
0.321252
0.179838
0.0442572
1.25716
1.41421
0.848363
0.869957
0.747055
0.605451
0.463227
0.321232
0.179898
0.0446762
1.27547
1.38745
0.889717
0.868103
0.74564
0.605065
0.463125
0.321209
0.179925
0.0448816
1.28934
1.36215
0.923336
0.86771
0.744443
0.604692
0.463023
0.321182
0.179918
0.0448804
1.2955
1.3425
0.951031
0.868033
0.743425
0.604337
0.462922
0.321151
0.179877
0.0446726
1.2936
1.33044
0.974171
0.868698
0.742549
0.604004
0.462825
0.321118
0.179804
0.0442513
1.28347
1.32573
0.992904
0.869499
0.741794
0.603697
0.462733
0.321083
0.1797
0.0436028
1.26581
1.32646
1.00718
0.870273
0.741147
0.603418
0.462648
0.321049
0.17957
0.0427063
1.24455
1.33002
1.01741
0.870866
0.740585
0.603168
0.462571
0.321015
0.179419
0.041532
1.22626
1.33429
1.02429
0.87116
0.740078
0.602947
0.462503
0.320984
0.179254
0.0400408
1.21607
1.33759
1.02844
0.871087
0.739605
0.602754
0.462445
0.320957
0.179083
0.0381752
1.21427
1.33955
1.03058
0.870644
0.739147
0.602583
0.462395
0.320938
0.178932
0.0356574
1.21633
1.34213
1.03095
0.86991
0.738741
0.602452
0.46236
0.320928
0.178987
0.0322939
0
0
0.884693
0.929943
0.758539
0.607917
0.463823
0.321325
0.179227
0.0332491
0
0
0.879393
0.924759
0.757584
0.607738
0.463784
0.321318
0.179169
0.0366248
0
0
0.853178
0.922518
0.756609
0.607508
0.463731
0.321312
0.179317
0.0391587
0
0
0.854928
0.918279
0.755452
0.607245
0.463668
0.321308
0.179484
0.0410385
1.22605
1.39281
0.783457
0.909325
0.754097
0.606944
0.463596
0.321303
0.179643
0.0425409
1.2258
1.43128
0.753385
0.896737
0.752513
0.606608
0.463514
0.321295
0.179787
0.0437234
1.23123
1.44715
0.758154
0.884643
0.75074
0.606244
0.463425
0.321284
0.179907
0.0446255
1.24727
1.44161
0.787417
0.87531
0.748911
0.60586
0.463329
0.321269
0.18
0.0452771
1.27197
1.41936
0.82998
0.869504
0.74718
0.605466
0.463229
0.32125
0.180061
0.0456995
1.29888
1.38919
0.875389
0.866794
0.745651
0.605072
0.463127
0.321227
0.180089
0.0459068
1.32046
1.35937
0.91611
0.866186
0.74436
0.604691
0.463025
0.3212
0.180082
0.0459056
1.33068
1.33539
0.948997
0.866708
0.743291
0.604332
0.462924
0.321169
0.18004
0.045696
1.32853
1.3209
0.97422
0.867724
0.742413
0.603999
0.462828
0.321136
0.179966
0.0452712
1.31396
1.3162
0.993221
0.868856
0.741693
0.603696
0.462737
0.321101
0.17986
0.0446174
1.28845
1.31849
1.00738
0.869878
0.741085
0.603421
0.462652
0.321066
0.179728
0.0437132
1.25869
1.32447
1.01762
0.870641
0.740554
0.603175
0.462576
0.321032
0.179574
0.0425288
1.23276
1.3311
1.02454
0.871044
0.740069
0.602956
0.462508
0.321001
0.179405
0.0410248
1.21697
1.33622
1.0287
0.871033
0.739609
0.602765
0.46245
0.320974
0.179231
0.0391435
1.21242
1.33925
1.03083
0.870622
0.739158
0.602594
0.462401
0.320954
0.179077
0.0366084
1.21371
1.34226
1.03124
0.869904
0.738755
0.602463
0.462365
0.320943
0.17913
0.0332318
0
0
0.884693
0.929943
0.758539
0.607917
0.463823
0.321325
0.179227
0.0332491
0
0
0.879393
0.924759
0.757584
0.607738
0.463784
0.321318
0.179169
0.0366248
0
0
0.853178
0.922518
0.756609
0.607508
0.463731
0.321312
0.179317
0.0391587
0
0
0.854928
0.918279
0.755452
0.607245
0.463668
0.321308
0.179484
0.0410385
1.22605
1.39281
0.783457
0.909325
0.754097
0.606944
0.463596
0.321303
0.179643
0.0425409
1.2258
1.43128
0.753385
0.896737
0.752513
0.606608
0.463514
0.321295
0.179787
0.0437234
1.23123
1.44715
0.758154
0.884643
0.75074
0.606244
0.463425
0.321284
0.179907
0.0446255
1.24727
1.44161
0.787417
0.87531
0.748911
0.60586
0.463329
0.321269
0.18
0.0452771
1.27197
1.41936
0.82998
0.869504
0.74718
0.605466
0.463229
0.32125
0.180061
0.0456995
1.29888
1.38919
0.875389
0.866794
0.745651
0.605072
0.463127
0.321227
0.180089
0.0459068
1.32046
1.35937
0.91611
0.866186
0.74436
0.604691
0.463025
0.3212
0.180082
0.0459056
1.33068
1.33539
0.948997
0.866708
0.743291
0.604332
0.462924
0.321169
0.18004
0.045696
1.32853
1.3209
0.97422
0.867724
0.742413
0.603999
0.462828
0.321136
0.179966
0.0452712
1.31396
1.3162
0.993221
0.868856
0.741693
0.603696
0.462737
0.321101
0.17986
0.0446174
1.28845
1.31849
1.00738
0.869878
0.741085
0.603421
0.462652
0.321066
0.179728
0.0437132
1.25869
1.32447
1.01762
0.870641
0.740554
0.603175
0.462576
0.321032
0.179574
0.0425288
1.23276
1.3311
1.02454
0.871044
0.740069
0.602956
0.462508
0.321001
0.179405
0.0410248
1.21697
1.33622
1.0287
0.871033
0.739609
0.602765
0.46245
0.320974
0.179231
0.0391435
1.21242
1.33925
1.03083
0.870622
0.739158
0.602594
0.462401
0.320954
0.179077
0.0366084
1.21371
1.34226
1.03124
0.869904
0.738755
0.602463
0.462365
0.320943
0.17913
0.0332318
0
0
0.882812
0.928761
0.758372
0.607913
0.463824
0.321312
0.179084
0.0323113
0
0
0.877588
0.923466
0.757413
0.607733
0.463786
0.321304
0.179025
0.0356739
0
0
0.851899
0.920977
0.756423
0.607503
0.463732
0.321298
0.17917
0.0381905
0
0
0.854723
0.916476
0.75524
0.607238
0.46367
0.321293
0.179333
0.0400547
1.22851
1.38835
0.784428
0.907416
0.753857
0.606935
0.463597
0.321287
0.179489
0.0415441
1.22743
1.42579
0.756681
0.894945
0.752255
0.606595
0.463514
0.321279
0.179629
0.0427165
1.22995
1.44089
0.766363
0.883191
0.750485
0.606228
0.463424
0.321267
0.179747
0.043611
1.24024
1.43523
0.802574
0.874612
0.748696
0.605842
0.463328
0.321252
0.179838
0.0442572
1.25716
1.41421
0.848363
0.869957
0.747055
0.605451
0.463227
0.321232
0.179898
0.0446762
1.27547
1.38745
0.889717
0.868103
0.74564
0.605065
0.463125
0.321209
0.179925
0.0448816
1.28934
1.36215
0.923336
0.86771
0.744443
0.604692
0.463023
0.321182
0.179918
0.0448804
1.2955
1.3425
0.951031
0.868033
0.743425
0.604337
0.462922
0.321151
0.179877
0.0446726
1.2936
1.33044
0.974171
0.868698
0.742549
0.604004
0.462825
0.321118
0.179804
0.0442513
1.28347
1.32573
0.992904
0.869499
0.741794
0.603697
0.462733
0.321083
0.1797
0.0436028
1.26581
1.32646
1.00718
0.870273
0.741147
0.603418
0.462648
0.321049
0.17957
0.0427063
1.24455
1.33002
1.01741
0.870866
0.740585
0.603168
0.462571
0.321015
0.179419
0.041532
1.22626
1.33429
1.02429
0.87116
0.740078
0.602947
0.462503
0.320984
0.179254
0.0400408
1.21607
1.33759
1.02844
0.871087
0.739605
0.602754
0.462445
0.320957
0.179083
0.0381752
1.21427
1.33955
1.03058
0.870644
0.739147
0.602583
0.462395
0.320938
0.178932
0.0356574
1.21633
1.34213
1.03095
0.86991
0.738741
0.602452
0.46236
0.320928
0.178987
0.0322939
0
0
0.876898
0.926766
0.758106
0.607912
0.463828
0.32129
0.178833
0.0303599
0
0
0.871178
0.921192
0.757146
0.607734
0.46379
0.321281
0.178769
0.0336689
0
0
0.845019
0.918119
0.75613
0.607504
0.463737
0.321274
0.178904
0.0361342
0
0
0.850677
0.91299
0.754892
0.607236
0.463674
0.321268
0.179057
0.0379589
1.23558
1.38469
0.784478
0.903679
0.753456
0.606926
0.4636
0.321261
0.179204
0.039419
1.23335
1.41838
0.768469
0.891614
0.751831
0.606581
0.463516
0.321251
0.179337
0.0405698
1.23214
1.42847
0.792974
0.88145
0.750114
0.606212
0.463424
0.321239
0.17945
0.0414488
1.2343
1.42069
0.833387
0.874904
0.748458
0.605829
0.463327
0.321222
0.179537
0.0420842
1.23851
1.40327
0.871442
0.871518
0.74697
0.605442
0.463226
0.321202
0.179595
0.0424966
1.24272
1.38413
0.904151
0.870051
0.745673
0.60506
0.463122
0.321178
0.17962
0.0426989
1.24558
1.36746
0.932449
0.86958
0.744542
0.604688
0.463018
0.32115
0.179613
0.0426977
1.24606
1.35462
0.956607
0.869641
0.743548
0.604333
0.462917
0.321119
0.179573
0.0424929
1.24424
1.34571
0.976855
0.869977
0.742672
0.603999
0.462818
0.321086
0.179502
0.0420782
1.24009
1.34045
0.993518
0.870423
0.741899
0.603689
0.462725
0.321052
0.179402
0.0414404
1.23389
1.33838
1.00685
0.870852
0.741212
0.603404
0.462639
0.321018
0.179278
0.0405593
1.22701
1.33855
1.01691
0.871165
0.740602
0.603148
0.462561
0.320985
0.179133
0.0394066
1.22128
1.33937
1.0238
0.871276
0.740059
0.602923
0.462492
0.320955
0.178977
0.0379448
1.21889
1.33974
1.02797
0.871108
0.739568
0.602728
0.462434
0.320929
0.178816
0.0361187
1.22054
1.34012
1.03016
0.870624
0.739102
0.602557
0.462385
0.320911
0.178675
0.0336521
1.22364
1.34205
1.03046
0.869873
0.738696
0.602427
0.46235
0.320902
0.178735
0.0303422
0
0
0.866291
0.925291
0.757855
0.607923
0.463836
0.321269
0.178551
0.0272903
0
0
0.861165
0.918976
0.75695
0.607759
0.4638
0.32126
0.178475
0.0303496
0
0
0.830743
0.915012
0.755936
0.607539
0.463748
0.321252
0.178584
0.0326545
0
0
0.834382
0.908492
0.754645
0.607268
0.463685
0.321244
0.178715
0.0343971
1.24924
1.39458
0.790315
0.898886
0.753165
0.606955
0.46361
0.321235
0.178846
0.0358087
1.24696
1.41153
0.798137
0.888562
0.751559
0.606607
0.463525
0.321224
0.178968
0.0369277
1.24266
1.41022
0.826971
0.881153
0.749953
0.606235
0.463431
0.32121
0.179073
0.0377859
1.23692
1.40157
0.858304
0.876637
0.748438
0.605848
0.463331
0.321192
0.179155
0.0384081
1.23053
1.39146
0.888699
0.873808
0.74704
0.605455
0.463227
0.321171
0.17921
0.0388125
1.22437
1.3811
0.916802
0.872087
0.745766
0.605066
0.463121
0.321145
0.179234
0.0390111
1.21961
1.37128
0.941436
0.871176
0.744619
0.604686
0.463015
0.321117
0.179227
0.0390098
1.21638
1.36272
0.962563
0.870814
0.743595
0.604323
0.46291
0.321086
0.179188
0.0388087
1.21471
1.35585
0.98042
0.870789
0.742685
0.60398
0.46281
0.321053
0.17912
0.0384018
1.21462
1.35076
0.995224
0.870935
0.741878
0.603661
0.462714
0.321019
0.179025
0.0377772
1.21647
1.34726
1.00716
0.871116
0.741161
0.603369
0.462626
0.320985
0.178907
0.0369169
1.22031
1.34491
1.01639
0.871226
0.740521
0.603106
0.462546
0.320953
0.178774
0.0357959
1.2251
1.34317
1.02309
0.871188
0.739949
0.602874
0.462476
0.320924
0.178634
0.0343826
1.23007
1.34177
1.02745
0.870946
0.739441
0.602677
0.462417
0.3209
0.178494
0.0326385
1.2343
1.34114
1.02978
0.87046
0.738984
0.602511
0.46237
0.320884
0.178379
0.0303324
1.23728
1.34235
1.03005
0.869744
0.738601
0.602389
0.462338
0.320876
0.178452
0.0272723
0
0
0.857288
0.926728
0.757748
0.60794
0.463842
0.321258
0.178385
0.0234928
0
0
0.854174
0.919955
0.757143
0.607812
0.463812
0.321253
0.178375
0.0253888
0
0
0.823115
0.91602
0.756202
0.607609
0.463764
0.321246
0.178434
0.0273828
0
0
0.809387
0.907038
0.754986
0.607341
0.4637
0.321238
0.178534
0.0291073
1.26198
1.3985
0.811602
0.898309
0.753516
0.607022
0.463624
0.321227
0.178648
0.030505
1.26015
1.39861
0.827374
0.890212
0.75191
0.606664
0.463536
0.321215
0.17876
0.0316121
1.2547
1.39687
0.848134
0.883622
0.750273
0.60628
0.46344
0.321199
0.178859
0.032461
1.24632
1.39276
0.874374
0.878724
0.748684
0.60588
0.463337
0.32118
0.178937
0.0330766
1.23744
1.38664
0.900961
0.875396
0.747207
0.605475
0.463231
0.321158
0.17899
0.0334767
1.22971
1.37969
0.925492
0.87326
0.745866
0.605074
0.463121
0.321132
0.179013
0.0336732
1.2237
1.37267
0.947437
0.871996
0.744663
0.604683
0.463012
0.321103
0.179005
0.0336719
1.21976
1.3661
0.966633
0.871347
0.743591
0.604308
0.462905
0.321071
0.178967
0.0334728
1.21826
1.36031
0.983069
0.871097
0.742641
0.603954
0.462801
0.321038
0.178901
0.0330701
1.21924
1.35543
0.996821
0.871066
0.741798
0.603625
0.462703
0.321004
0.178809
0.0324521
1.22258
1.35152
1.008
0.871109
0.741051
0.603324
0.462613
0.32097
0.178697
0.031601
1.22814
1.34852
1.01674
0.87111
0.740386
0.603054
0.462531
0.320939
0.178574
0.0304918
1.23545
1.34634
1.02318
0.870984
0.739794
0.602817
0.46246
0.320911
0.178451
0.0290923
1.24292
1.34477
1.02749
0.870681
0.73927
0.602616
0.462401
0.320888
0.178343
0.0273663
1.24796
1.34386
1.02987
0.870235
0.738838
0.602461
0.462357
0.320871
0.178278
0.0253712
1.24971
1.34364
1.03024
0.86969
0.73853
0.602361
0.462329
0.320862
0.178285
0.0234745

VECTORS velocity float
0 0 0
0 0 0
0.684575 -0.028796 -0.00408168
0.630612 -0.001901 0.00104611
0.649256 -0.00055601 0.000139112
0.655244 -0.000128546 3.24191e-05
0.656613 -2.83576e-05 7.52243e-06
0.656959 -8.29415e-06 -3.39284e-06
0.657269 5.63966e-06 -5.32356e-05
0.686014 -0.00195167 -0.00180369
0 0 0
0 0 0
-0.0816732 -0.0853323 -0.00338559
0.65516 -0.0108671 0.000850181
0.730671 -0.00213522 0.000224287
0.741473 -0.000452214 5.20064e-05
0.743523 -9.84234e-05 1.15995e-05
0.744009 -2.80227e-05 -2.54453e-06
0.74489 -3.88608e-05 -5.0425e-05
0.758251 -0.00399354 -0.00234113
0 0 0
0 0 0
0.709871 -0.145521 -0.0018774
0.701539 -0.0216362 0.000669834
0.743341 -0.00406801 0.000196902
0.753171 -0.000845192 5.19689e-05
0.755263 -0.000183442 1.20297e-05
0.755764 -5.09171e-05 -2.70961e-06
0.756591 -0.000128682 -6.03007e-05
0.766577 -0.00379262 -0.00243983
0 0 0
0 0 0
-0.0676828 -0.208593 -0.000373249
0.675995 -0.0312671 -8.18273e-05
0.744465 -0.00593519 0.000156751
0.754917 -0.00123336 4.85681e-05
0.756931 -0.000267864 1.14187e-05
0.757404 -7.26873e-05 -3.14327e-06
0.758068 -0.000188146 -6.93775e-05
0.767763 -0.003181 -0.00247103
0.366254 -0.0152167 -0.0324677
0.716105 0.00869416 -0.0245136
0.710877 -0.240877 0.0114401
0.705017 -0.0412743 0.0012139
0.746827 -0.00770472 0.000208414
0.755367 -0.00159306 4.63304e-05
0.757147 -0.00034588 1.03028e-05
0.757569 -9.15858e-05 -3.70416e-06
0.758089 -0.000212566 -7.38963e-05
0.768012 -0.00256952 -0.00248341
0.45305 -0.0406455 -0.0411294
0.888222 0.0185513 -0.0278068
0.867747 -0.236187 0.0168744
0.732028 -0.047752 0.00236301
0.749351 -0.00915599 0.000245794
0.755737 -0.00190543 4.17646e-05
0.757229 -0.000414312 8.75304e-06
0.757588 -0.000106749 -4.34692e-06
0.757991 -0.000210458 -7.66161e-05
0.768148 -0.0020169 -0.0024915
0.501849 -0.0551266 -0.0467437
0.917958 0.018341 -0.025193
0.901691 -0.220729 0.0129785
0.746792 -0.0513121 0.00211215
0.751511 -0.0102643 0.000207452
0.756128 -0.00216136 3.29566e-05
0.757311 -0.000471103 6.81828e-06
0.757599 -0.000117758 -5.01367e-06
0.757908 -0.00018859 -7.82979e-05
0.768249 -0.00151685 -0.00249695
0.541395 -0.058829 -0.0509652
0.919033 0.0152152 -0.022191
0.904929 -0.201139 0.00755096
0.756858 -0.0526428 0.0014331
0.75362 -0.0110318 0.000147648
0.756555 -0.00235448 2.29772e-05
0.757401 -0.000514673 4.68931e-06
0.757612 -0.000124478 -5.6715e-06
0.757849 -0.000152393 -7.93499e-05
0.768324 -0.00105704 -0.0025005
0.573545 -0.0539025 -0.0542937
0.915629 0.0121127 -0.0201427
0.902949 -0.179952 0.00397098
0.765514 -0.052182 0.000851135
0.755797 -0.0114566 8.73466e-05
0.757012 -0.00248011 1.28792e-05
0.757498 -0.000543862 2.46861e-06
0.757629 -0.000126976 -6.29971e-06
0.757812 -0.000106342 -7.99961e-05
0.768373 -0.000625371 -0.00250265
0.598418 -0.0422955 -0.0570277
0.912031 0.01015 -0.0189638
0.900324 -0.158847 0.00172819
0.773096 -0.0503166 0.000441237