# vtk DataFile Version 2.0
TestTestTest
ASCII

DATASET STRUCTURED_GRID
DIMENSIONS 11 21 11
POINTS 2541 float
0 0 0
0.5 0 0
1 0 0
1.5 0 0
2 0 0
2.5 0 0
3 0 0
3.5 0 0
4 0 0
4.5 0 0
5 0 0
0 0.05 0
0.5 0.05 0
1 0.05 0
1.5 0.05 0
2 0.05 0
2.5 0.05 0
3 0.05 0
3.5 0.05 0
4 0.05 0
4.5 0.05 0
5 0.05 0
0 0.1 0
0.5 0.1 0
1 0.1 0
1.5 0.1 0
2 0.1 0
2.5 0.1 0
3 0.1 0
3.5 0.1 0
4 0.1 0
4.5 0.1 0
5 0.1 0
0 0.15 0
0.5 0.15 0
1 0.15 0
1.5 0.15 0
2 0.15 0
2.5 0.15 0
3 0.15 0
3.5 0.15 0
4 0.15 0
4.5 0.15 0
5 0.15 0
0 0.2 0
0.5 0.2 0
1 0.2 0
1.5 0.2 0
2 0.2 0
2.5 0.2 0
3 0.2 0
3.5 0.2 0
4 0.2 0
4.5 0.2 0
5 0.2 0
0 0.25 0
0.5 0.25 0
1 0.25 0
1.5 0.25 0
2 0.25 0
2.5 0.25 0
3 0.25 0
3.5 0.25 0
4 0.25 0
4.5 0.25 0
5 0.25 0
0 0.3 0
0.5 0.3 0
1 0.3 0
1.5 0.3 0
2 0.3 0
2.5 0.3 0
3 0.3 0
3.5 0.3 0
4 0.3 0
4.5 0.3 0
5 0.3 0
0 0.35 0
0.5 0.35 0
1 0.35 0
1.5 0.35 0
2 0.35 0
2.5 0.35 0
3 0.35 0
3.5 0.35 0
4 0.35 0
4.5 0.35 0
5 0.35 0
0 0.4 0
0.5 0.4 0
1 0.4 0
1.5 0.4 0
2 0.4 0
2.5 0.4 0
3 0.4 0
3.5 0.4 0
4 0.4 0
4.5 0.4 0
5 0.4 0
0 0.45 0
0.5 0.45 0
1 0.45 0
1.5 0.45 0
2 0.45 0
2.5 0.45 0
3 0.45 0
3.5 0.45 0
4 0.45 0
4.5 0.45 0
5 0.45 0
0 0.5 0
0.5 0.5 0
1 0.5 0
1.5 0.5 0
2 0.5 0
2.5 0.5 0
3 0.5 0
3.5 0.5 0
4 0.5 0
4.5 0.5 0
5 0.5 0
0 0.55 0
0.5 0.55 0
1 0.55 0
1.5 0.55 0
2 0.55 0
2.5 0.55 0
3 0.55 0
3.5 0.55 0
4 0.55 0
4.5 0.55 0
5 0.55 0
0 0.6 0
0.5 0.6 0
1 0.6 0
1.5 0.6 0
2 0.6 0
2.5 0.6 0
3 0.6 0
3.5 0.6 0
4 0.6 0
4.5 0.6 0
5 0.6 0
0 0.65 0
0.5 0.65 0
1 0.65 0
1.5 0.65 0
2 0.65 0
2.5 0.65 0
3 0.65 0
3.5 0.65 0
4 0.65 0
4.5 0.65 0
5 0.65 0
0 0.7 0
0.5 0.7 0
1 0.7 0
1.5 0.7 0
2 0.7 0
2.5 0.7 0
3 0.7 0
3.5 0.7 0
4 0.7 0
4.5 0.7 0
5 0.7 0
0 0.75 0
0.5 0.75 0
1 0.75 0
1.5 0.75 0
2 0.75 0
2.5 0.75 0
3 0.75 0
3.5 0.75 0
4 0.75 0
4.5 0.75 0
5 0.75 0
0 0.8 0
0.5 0.8 0
1 0.8 0
1.5 0.8 0
2 0.8 0
2.5 0.8 0
3 0.8 0
3.5 0.8 0
4 0.8 0
4.5 0.8 0
5 0.8 0
0 0.85 0
0.5 0.85 0
1 0.85 0
1.5 0.85 0
2 0.85 0
2.5 0.85 0
3 0.85 0
3.5 0.85 0
4 0.85 0
4.5 0.85 0
5 0.85 0
0 0.9 0
0.5 0.9 0
1 0.9 0
1.5 0.9 0
2 0.9 0
2.5 0.9 0
3 0.9 0
3.5 0.9 0
4 0.9 0
4.5 0.9 0
5 0.9 0
0 0.95 0
0.5 0.95 0
1 0.95 0
1.5 0.95 0
2 0.95 0
2.5 0.95 0
3 0.95 0
3.5 0.95 0
4 0.95 0
4.5 0.95 0
5 0.95 0
0 1 0
0.5 1 0
1 1 0
1.5 1 0
2 1 0
2.5 1 0
3 1 0
3.5 1 0
4 1 0
4.5 1 0
5 1 0
0 0 0.1
0.5 0 0.1
1 0 0.1
1.5 0 0.1
2 0 0.1
2.5 0 0.1
3 0 0.1
3.5 0 0.1
4 0 0.1
4.5 0 0.1
5 0 0.1
0 0.05 0.1
0.5 0.05 0.1
1 0.05 0.1
1.5 0.05 0.1
2 0.05 0.1
2.5 0.05 0.1
3 0.05 0.1
3.5 0.05 0.1
4 0.05 0.1
4.5 0.05 0.1
5 0.05 0.1
0 0.1 0.1
0.5 0.1 0.1
1 0.1 0.1
1.5 0.1 0.1
2 0.1 0.1
2.5 0.1 0.1
3 0.1 0.1
3.5 0.1 0.1
4 0.1 0.1
4.5 0.1 0.1
5 0.1 0.1
0 0.15 0.1
0.5 0.15 0.1
1 0.15 0.1
1.5 0.15 0.1
2 0.15 0.1
2.5 0.15 0.1
3 0.15 0.1
3.5 0.15 0.1
4 0.15 0.1
4.5 0.15 0.1
5 0.15 0.1
0 0.2 0.1
0.5 0.2 0.1
1 0.2 0.1
1.5 0.2 0.1
2 0.2 0.1
2.5 0.2 0.1
3 0.2 0.1
3.5 0.2 0.1
4 0.2 0.1
4.5 0.2 0.1
5 0.2 0.1
0 0.25 0.1
0.5 0.25 0.1
1 0.25 0.1
1.5 0.25 0.1
2 0.25 0.1
2.5 0.25 0.1
3 0.25 0.1
3.5 0.25 0.1
4 0.25 0.1
4.5 0.25 0.1
5 0.25 0.1
0 0.3 0.1
0.5 0.3 0.1
1 0.3 0.1
1.5 0.3 0.1
2 0.3 0.1
2.5 0.3 0.1
3 0.3 0.1
3.5 0.3 0.1
4 0.3 0.1
4.5 0.3 0.1
5 0.3 0.1
0 0.35 0.1
0.5 0.35 0.1
1 0.35 0.1
1.5 0.35 0.1
2 0.35 0.1
2.5 0.35 0.1
3 0.35 0.1
3.5 0.35 0.1
4 0.35 0.1
4.5 0.35 0.1
5 0.35 0.1
0 0.4 0.1
0.5 0.4 0.1
1 0.4 0.1
1.5 0.4 0.1
2 0.4 0.1
2.5 0.4 0.1
3 0.4 0.1
3.5 0.4 0.1
4 0.4 0.1
4.5 0.4 0.1
5 0.4 0.1
0 0.45 0.1
0.5 0.45 0.1
1 0.45 0.1
1.5 0.45 0.1
2 0.45 0.1
2.5 0.45 0.1
3 0.45 0.1
3.5 0.45 0.1
4 0.45 0.1
4.5 0.45 0.1
5 0.45 0.1
0 0.5 0.1
0.5 0.5 0.1
1 0.5 0.1
1.5 0.5 0.1
2 0.5 0.1
2.5 0.5 0.1
3 0.5 0.1
3.5 0.5 0.1
4 0.5 0.1
4.5 0.5 0.1
5 0.5 0.1
0 0.55 0.1
0.5 0.55 0.1
1 0.55 0.1
1.5 0.55 0.1
2 0.55 0.1
2.5 0.55 0.1
3 0.55 0.1
3.5 0.55 0.1
4 0.55 0.1
4.5 0.55 0.1
5 0.55 0.1
0 0.6 0.1
0.5 0.6 0.1
1 0.6 0.1
1.5 0.6 0.1
2 0.6 0.1
2.5 0.6 0.1
3 0.6 0.1
3.5 0.6 0.1
4 0.6 0.1
4.5 0.6 0.1
5 0.6 0.1
0 0.65 0.1
0.5 0.65 0.1
1 0.65 0.1
1.5 0.65 0.1
2 0.65 0.1
2.5 0.65 0.1
3 0.65 0.1
3.5 0.65 0.1
4 0.65 0.1
4.5 0.65 0.1
5 0.65 0.1
0 0.7 0.1
0.5 0.7 0.1
1 0.7 0.1
1.5 0.7 0.1
2 0.7 0.1
2.5 0.7 0.1
3 0.7 0.1
3.5 0.7 0.1
4 0.7 0.1
4.5 0.7 0.1
5 0.7 0.1
0 0.75 0.1
0.5 0.75 0.1
1 0.75 0.1
1.5 0.75 0.1
2 0.75 0.1
2.5 0.75 0.1
3 0.75 0.1
3.5 0.75 0.1
4 0.75 0.1
4.5 0.75 0.1
5 0.75 0.1
0 0.8 0.1
0.5 0.8 0.1
1 0.8 0.1
1.5 0.8 0.1
2 0.8 0.1
2.5 0.8 0.1
3 0.8 0.1
3.5 0.8 0.1
4 0.8 0.1
4.5 0.8 0.1
5 0.8 0.1
0 0.85 0.1
0.5 0.85 0.1
1 0.85 0.1
1.5 0.85 0.1
2 0.85 0.1
2.5 0.85 0.1
3 0.85 0.1
3.5 0.85 0.1
4 0.85 0.1
4.5 0.85 0.1
5 0.85 0.1
0 0.9 0.1
0.5 0.9 0.1
1 0.9 0.1
1.5 0.9 0.1
2 0.9 0.1
2.5 0.9 0.1
3 0.9 0.1
3.5 0.9 0.1
4 0.9 0.1
4.5 0.9 0.1
5 0.9 0.1
0 0.95 0.1
0.5 0.95 0.1
1 0.95 0.1
1.5 0.95 0.1
2 0.95 0.1
2.5 0.95 0.1
3 0.95 0.1
3.5 0.95 0.1
4 0.95 0.1
4.5 0.95 0.1
5 0.95 0.1
0 1 0.1
0.5 1 0.1
1 1 0.1
1.5 1 0.1
2 1 0.1
2.5 1 0.1
3 1 0.1
3.5 1 0.1
4 1 0.1
4.5 1 0.1
5 1 0.1
0 0 0.2
0.5 0 0.2
1 0 0.2
1.5 0 0.2
2 0 0.2
2.5 0 0.2
3 0 0.2
3.5 0 0.2
4 0 0.2
4.5 0 0.2
5 0 0.2
0 0.05 0.2
0.5 0.05 0.2
1 0.05 0.2
1.5 0.05 0.2
2 0.05 0.2
2.5 0.05 0.2
3 0.05 0.2
3.5 0.05 0.2
4 0.05 0.2
4.5 0.05 0.2
5 0.05 0.2
0 0.1 0.2
0.5 0.1 0.2
1 0.1 0.2
1.5 0.1 0.2
2 0.1 0.2
2.5 0.1 0.2
3 0.1 0.2
3.5 0.1 0.2
4 0.1 0.2
4.5 0.1 0.2
5 0.1 0.2
0 0.15 0.2
0.5 0.15 0.2
1 0.15 0.2
1.5 0.15 0.2
2 0.15 0.2
2.5 0.15 0.2
3 0.15 0.2
3.5 0.15 0.2
4 0.15 0.2
4.5 0.15 0.2
5 0.15 0.2
0 0.2 0.2
0.5 0.2 0.2
1 0.2 0.2
1.5 0.2 0.2
2 0.2 0.2
2.5 0.2 0.2
3 0.2 0.2
3.5 0.2 0.2
4 0.2 0.2
4.5 0.2 0.2
5 0.2 0.2
0 0.25 0.2
0.5 0.25 0.2
1 0.25 0.2
1.5 0.25 0.2
2 0.25 0.2
2.5 0.25 0.2
3 0.25 0.2
3.5 0.25 0.2
4 0.25 0.2
4.5 0.25 0.2
5 0.25 0.2
0 0.3 0.2
0.5 0.3 0.2
1 0.3 0.2
1.5 0.3 0.2
2 0.3 0.2
2.5 0.3 0.2
3 0.3 0.2
3.5 0.3 0.2
4 0.3 0.2
4.5 0.3 0.2
5 0.3 0.2
0 0.35 0.2
0.5 0.35 0.2
1 0.35 0.2
1.5 0.35 0.2
2 0.35 0.2
2.5 0.35 0.2
3 0.35 0.2
3.5 0.35 0.2
4 0.35 0.2
4.5 0.35 0.2
5 0.35 0.2
0 0.4 0.2
0.5 0.4 0.2
1 0.4 0.2
1.5 0.4 0.2
2 0.4 0.2
2.5 0.4 0.2
3 0.4 0.2
3.5 0.4 0.2
4 0.4 0.2
4.5 0.4 0.2
5 0.4 0.2
0 0.45 0.2
0.5 0.45 0.2
1 0.45 0.2
1.5 0.45 0.2
2 0.45 0.2
2.5 0.45 0.2
3 0.45 0.2
3.5 0.45 0.2
4 0.45 0.2
4.5 0.45 0.2
5 0.45 0.2
0 0.5 0.2
0.5 0.5 0.2
1 0.5 0.2
1.5 0.5 0.2
2 0.5 0.2
2.5 0.5 0.2
3 0.5 0.2
3.5 0.5 0.2
4 0.5 0.2
4.5 0.5 0.2
5 0.5 0.2
0 0.55 0.2
0.5 0.55 0.2
1 0.55 0.2
1.5 0.55 0.2
2 0.55 0.2
2.5 0.55 0.2
3 0.55 0.2
3.5 0.55 0.2
4 0.55 0.2
4.5 0.55 0.2
5 0.55 0.2
0 0.6 0.2
0.5 0.6 0.2
1 0.6 0.2
1.5 0.6 0.2
2 0.6 0.2
2.5 0.6 0.2
3 0.6 0.2
3.5 0.6 0.2
4 0.6 0.2
4.5 0.6 0.2
5 0.6 0.2
0 0.65 0.2
0.5 0.65 0.2
1 0.65 0.2
1.5 0.65 0.2
2 0.65 0.2
2.5 0.65 0.2
3 0.65 0.2
3.5 0.65 0.2
4 0.65 0.2
4.5 0.65 0.2
5 0.65 0.2
0 0.7 0.2
0.5 0.7 0.2
1 0.7 0.2
1.5 0.7 0.2
2 0.7 0.2
2.5 0.7 0.2
3 0.7 0.2
3.5 0.7 0.2
4 0.7 0.2
4.5 0.7 0.2
5 0.7 0.2
0 0.75 0.2
0.5 0.75 0.2
1 0.75 0.2
1.5 0.75 0.2
2 0.75 0.2
2.5 0.75 0.2
3 0.75 0.2
3.5 0.75 0.2
4 0.75 0.2
4.5 0.75 0.2
5 0.75 0.2
0 0.8 0.2
0.5 0.8 0.2
1 0.8 0.2
1.5 0.8 0.2
2 0.8 0.2
2.5 0.8 0.2
3 0.8 0.2
3.5 0.8 0.2
4 0.8 0.2
4.5 0.8 0.2
5 0.8 0.2
0 0.85 0.2
0.5 0.85 0.2
1 0.85 0.2
1.5 0.85 0.2
2 0.85 0.2
2.5 0.85 0.2
3 0.85 0.2
3.5 0.85 0.2
4 0.85 0.2
4.5 0.85 0.2
5 0.85 0.2
0 0.9 0.2
0.5 0.9 0.2
1 0.9 0.2
1.5 0.9 0.2
2 0.9 0.2
2.5 0.9 0.2
3 0.9 0.2
3.5 0.9 0.2
4 0.9 0.2
4.5 0.9 0.2
5 0.9 0.2
0 0.95 0.2
0.5 0.95 0.2
1 0.95 0.2
1.5 0.95 0.2
2 0.95 0.2
2.5 0.95 0.2
3 0.95 0.2
3.5 0.95 0.2
4 0.95 0.2
4.5 0.95 0.2
5 0.95 0.2
0 1 0.2
0.5 1 0.2
1 1 0.2
1.5 1 0.2
2 1 0.2
2.5 1 0.2
3 1 0.2
3.5 1 0.2
4 1 0.2
4.5 1 0.2
5 1 0.2
0 0 0.3
0.5 0 0.3
1 0 0.3
1.5 0 0.3
2 0 0.3
2.5 0 0.3
3 0 0.3
3.5 0 0.3
4 0 0.3
4.5 0 0.3
5 0 0.3
0 0.05 0.3
0.5 0.05 0.3
1 0.05 0.3
1.5 0.05 0.3
2 0.05 0.3
2.5 0.05 0.3
3 0.05 0.3
3.5 0.05 0.3
4 0.05 0.3
4.5 0.05 0.3
5 0.05 0.3
0 0.1 0.3
0.5 0.1 0.3
1 0.1 0.3
1.5 0.1 0.3
2 0.1 0.3
2.5 0.1 0.3
3 0.1 0.3
3.5 0.1 0.3
4 0.1 0.3
4.5 0.1 0.3
5 0.1 0.3
0 0.15 0.3
0.5 0.15 0.3
1 0.15 0.3
1.5 0.15 0.3
2 0.15 0.3
2.5 0.15 0.3
3 0.15 0.3
3.5 0.15 0.3
4 0.15 0.3
4.5 0.15 0.3
5 0.15 0.3
0 0.2 0.3
0.5 0.2 0.3
1 0.2 0.3
1.5 0.2 0.3
2 0.2 0.3
2.5 0.2 0.3
3 0.2 0.3
3.5 0.2 0.3
4 0.2 0.3
4.5 0.2 0.3
5 0.2 0.3
0 0.25 0.3
0.5 0.25 0.3
1 0.25 0.3
1.5 0.25 0.3
2 0.25 0.3
2.5 0.25 0.3
3 0.25 0.3
3.5 0.25 0.3
4 0.25 0.3
4.5 0.25 0.3
5 0.25 0.3
0 0.3 0.3
0.5 0.3 0.3
1 0.3 0.3
1.5 0.3 0.3
2 0.3 0.3
2.5 0.3 0.3
3 0.3 0.3
3.5 0.3 0.3
4 0.3 0.3
4.5 0.3 0.3
5 0.3 0.3
0 0.35 0.3
0.5 0.35 0.3
1 0.35 0.3
1.5 0.35 0.3
2 0.35 0.3
2.5 0.35 0.3
3 0.35 0.3
3.5 0.35 0.3
4 0.35 0.3
4.5 0.35 0.3
5 0.35 0.3
0 0.4 0.3
0.5 0.4 0.3
1 0.4 0.3
1.5 0.4 0.3
2 0.4 0.3
2.5 0.4 0.3
3 0.4 0.3
3.5 0.4 0.3
4 0.4 0.3
4.5 0.4 0.3
5 0.4 0.3
0 0.45 0.3
0.5 0.45 0.3
1 0.45 0.3
1.5 0.45 0.3
2 0.45 0.3
2.5 0.45 0.3
3 0.45 0.3
3.5 0.45 0.3
4 0.45 0.3
4.5 0.45 0.3
5 0.45 0.3
0 0.5 0.3
0.5 0.5 0.3
1 0.5 0.3
1.5 0.5 0.3
2 0.5 0.3
2.5 0.5 0.3
3 0.5 0.3
3.5 0.5 0.3
4 0.5 0.3
4.5 0.5 0.3
5 0.5 0.3
0 0.55 0.3
0.5 0.55 0.3
1 0.55 0.3
1.5 0.55 0.3
2 0.55 0.3
2.5 0.55 0.3
3 0.55 0.3
3.5 0.55 0.3
4 0.55 0.3
4.5 0.55 0.3
5 0.55 0.3
0 0.6 0.3
0.5 0.6 0.3
1 0.6 0.3
1.5 0.6 0.3
2 0.6 0.3
2.5 0.6 0.3
3 0.6 0.3
3.5 0.6 0.3
4 0.6 0.3
4.5 0.6 0.3
5 0.6 0.3
0 0.65 0.3
0.5 0.65 0.3
1 0.65 0.3
1.5 0.65 0.3
2 0.65 0.3
2.5 0.65 0.3
3 0.65 0.3
3.5 0.65 0.3
4 0.65 0.3
4.5 0.65 0.3
5 0.65 0.3
0 0.7 0.3
0.5 0.7 0.3
1 0.7 0.3
1.5 0.7 0.3
2 0.7 0.3
2.5 0.7 0.3
3 0.7 0.3
3.5 0.7 0.3
4 0.7 0.3
4.5 0.7 0.3
5 0.7 0.3
0 0.75 0.3
0.5 0.75 0.3
1 0.75 0.3
1.5 0.75 0.3
2 0.75 0.3
2.5 0.75 0.3
3 0.75 0.3
3.5 0.75 0.3
4 0.75 0.3
4.5 0.75 0.3
5 0.75 0.3
0 0.8 0.3
0.5 0.8 0.3
1 0.8 0.3
1.5 0.8 0.3
2 0.8 0.3
2.5 0.8 0.3
3 0.8 0.3
3.5 0.8 0.3
4 0.8 0.3
4.5 0.8 0.3
5 0.8 0.3
0 0.85 0.3
0.5 0.85 0.3
1 0.85 0.3
1.5 0.85 0.3
2 0.85 0.3
2.5 0.85 0.3
3 0.85 0.3
3.5 0.85 0.3
4 0.85 0.3
4.5 0.85 0.3
5 0.85 0.3
0 0.9 0.3
0.5 0.9 0.3
1 0.9 0.3
1.5 0.9 0.3
2 0.9 0.3
2.5 0.9 0.3
3 0.9 0.3
3.5 0.9 0.3
4 0.9 0.3
4.5 0.9 0.3
5 0.9 0.3
0 0.95 0.3
0.5 0.95 0.3
1 0.95 0.3
1.5 0.95 0.3
2 0.95 0.3
2.5 0.95 0.3
3 0.95 0.3
3.5 0.95 0.3
4 0.95 0.3
4.5 0.95 0.3
5 0.95 0.3
0 1 0.3
0.5 1 0.3
1 1 0.3
1.5 1 0.3
2 1 0.3
2.5 1 0.3
3 1 0.3
3.5 1 0.3
4 1 0.3
4.5 1 0.3
5 1 0.3
0 0 0.4
[...]
CELL_DATA 2000
SCALARS pressure float 1
LOOKUP_TABLE default
0
0
0.838105
0.906171
0.740811
0.59398
0.453094
0.313797
0.174251
0.0232348
0
0
0.834898
0.899621
0.740218
0.593854
0.453065
0.313792
0.174234
0.0249705
0
0
0.80541
0.895851
0.739286
0.593649
0.453017
0.313786
0.174288
0.026873
0
0
0.791795
0.887143
0.738054
0.593375
0.452952
0.313777
0.174385
0.0285429
1.20124
1.34124
0.793186
0.878575
0.736547
0.593045
0.452873
0.313766
0.174497
0.0298964
1.19976
1.3424
0.806909
0.870365
0.734881
0.592673
0.452783
0.313753
0.174607
0.0309677
1.19478
1.34221
0.825669
0.863492
0.733167
0.592273
0.452684
0.313736
0.174704
0.0317885
1.18697
1.33984
0.85012
0.858242
0.731491
0.591856
0.452578
0.313717
0.174781
0.0323832
1.17868
1.33521
0.875436
0.854578
0.729923
0.591432
0.452467
0.313693
0.174832
0.0327697
1.17148
1.32942
0.898988
0.852141
0.728494
0.591011
0.452354
0.313667
0.174855
0.0329594
1.16592
1.32332
0.920149
0.850607
0.727207
0.590601
0.452241
0.313637
0.174847
0.032958
1.16232
1.31749
0.938735
0.849721
0.726056
0.590207
0.45213
0.313605
0.17481
0.0327657
1.16105
1.3123
0.954708
0.849264
0.725033
0.589835
0.452023
0.313571
0.174744
0.0323767
1.16213
1.30795
0.968114
0.849055
0.724124
0.589489
0.451922
0.313536
0.174653
0.0317796
1.16546
1.30449
0.979043
0.848947
0.723318
0.589174
0.451828
0.313503
0.174544
0.0309566
1.17088
1.30187
0.987601
0.848823
0.722602
0.58889
0.451744
0.313471
0.174423
0.0298833
1.17794
1.29999
0.99391
0.848595
0.721968
0.588642
0.451671
0.313443
0.174302
0.0285279
1.18511
1.29856
0.99812
0.84822
0.721413
0.588434
0.45161
0.31342
0.174196
0.0268566
1.18985
1.29759
1.00044
0.847743
0.720966
0.588275
0.451565
0.313403
0.174137
0.024953
1.19133
1.29724
1.00079
0.8472
0.720658
0.588175
0.451538
0.313394
0.17415
0.0232167
0
0
0.846748
0.905276
0.740991
0.593973
0.45309
0.313808
0.174412
0.0268765
0
0
0.841463
0.899095
0.740106
0.593814
0.453056
0.313799
0.174305
0.0297288
0
0
0.812109
0.895222
0.739064
0.593589
0.453004
0.31379
0.174408
0.0319957
0
0
0.814843
0.888878
0.737745
0.59331
0.452939
0.313781
0.174542
0.0336819
1.18943
1.33638
0.773183
0.879392
0.736217
0.592985
0.452861
0.313772
0.174672
0.0350462
1.18758
1.35333
0.779541
0.86897
0.734542
0.592622
0.452773
0.31376
0.174794
0.0361274
1.18396
1.35409
0.805293
0.861136
0.732847
0.592233
0.452676
0.313745
0.174898
0.0369565
1.17905
1.34757
0.834237
0.856114
0.731238
0.591827
0.452573
0.313726
0.174979
0.0375574
1.17358
1.33894
0.862823
0.85287
0.729746
0.591414
0.452465
0.313704
0.175032
0.0379479
1.16832
1.32964
0.889699
0.8508
0.728378
0.591003
0.452354
0.313678
0.175056
0.0381396
1.16428
1.32055
0.913509
0.849602
0.727141
0.590603
0.452244
0.313649
0.175048
0.0381383
1.16155
1.31258
0.93404
0.849001
0.726033
0.590218
0.452135
0.313617
0.17501
0.0379441
1.16011
1.30629
0.951476
0.848777
0.725047
0.589856
0.45203
0.313583
0.174942
0.0375511
1.15999
1.30182
0.966001
0.848757
0.724171
0.589519
0.451931
0.313549
0.174848
0.0369478
1.16157
1.299
0.97776
0.8488
0.723394
0.589211
0.451839
0.313514
0.174732
0.0361165
1.16492
1.29735
0.986887
0.848796
0.722703
0.588934
0.451756
0.313482
0.174599
0.0350334
1.16912
1.29626
0.99353
0.84867
0.722088
0.588691
0.451684
0.313453
0.174459
0.0336674
1.17352
1.29533
0.997846
0.848363
0.721548
0.588485
0.451624
0.31343
0.174318
0.0319796
1.17725
1.29491
1.0002
0.847854
0.721073
0.588314
0.451576
0.313415
0.174208
0.0297116
1.17984
1.29605
1.00051
0.847171
0.720701
0.588195
0.451544
0.313407
0.174311
0.0268585
0
0
0.857051
0.907227
0.741324
0.593971
0.453084
0.313828
0.174689
0.029886
0
0
0.85118
0.901738
0.740372
0.593798
0.453047
0.31382
0.174593
0.033006
0
0
0.825608
0.898695
0.739309
0.593558
0.452992
0.313811
0.174728
0.0354634
0
0
0.830442
0.893686
0.738035
0.593279
0.452927
0.313805
0.174887
0.0372387
1.17654
1.32559
0.76737
0.88445
0.736551
0.592957
0.452851
0.313797
0.175036
0.0386534
1.17493
1.35839
0.751426
0.8723
0.734857
0.592597
0.452764
0.313787
0.17517
0.0397679
1.17458
1.36964
0.77298
0.861779
0.733047
0.59221
0.452669
0.313774
0.175283
0.0406185
1.17768
1.36409
0.809803
0.854637
0.73128
0.591807
0.452568
0.313757
0.175369
0.0412332
1.18287
1.34845
0.845418
0.850605
0.729677
0.591399
0.452463
0.313736
0.175426
0.0416319
1.18804
1.33016
0.876488
0.848647
0.728273
0.590995
0.452355
0.313711
0.175452
0.0418275
1.19175
1.31393
0.903709
0.847844
0.727046
0.590602
0.452247
0.313683
0.175445
0.0418263
1.19284
1.30151
0.927231
0.847668
0.725968
0.590226
0.452141
0.313651
0.175405
0.0416282
1.19128
1.29312
0.947129
0.847824
0.725016
0.589873
0.452039
0.313617
0.175334
0.0412271
1.18701
1.28856
0.963641
0.848125
0.724175
0.589544
0.451942
0.313582
0.175234
0.0406101
1.18042
1.2874
0.976956
0.848441
0.72343
0.589244
0.451852
0.313547
0.175109
0.0397573
1.17303
1.28869
0.98704
0.848663
0.72277
0.588975
0.451771
0.313514
0.174964
0.038641
1.1667
1.29074
0.993947
0.848698
0.722187
0.588738
0.4517
0.313484
0.174806
0.0372245
1.16363
1.29222
0.998135
0.848468
0.721663
0.588534
0.45164
0.313458
0.174639
0.0354478
1.16452
1.29331
1.00041
0.847959
0.721174
0.588356
0.451589
0.313441
0.174498
0.0329891
1.16697
1.2954
1.00082
0.847247
0.720778
0.588229
0.451556
0.313432
0.17459
0.0298684
0
0
0.862948
0.909517
0.74165
0.593979
0.453081
0.31385
0.174939
0.0318046
0
0
0.85767
0.904301
0.740694
0.593804
0.453044
0.313843
0.174849
0.0349833
0
0
0.832669
0.901838
0.739656
0.593563
0.452988
0.313835
0.174995
0.0374974
0
0
0.834916
0.897424
0.738436
0.593287
0.452924
0.313831
0.175165
0.0393151
1.16982
1.32785
0.767679
0.888416
0.737006
0.592972
0.452848
0.313824
0.175325
0.040761
1.1695
1.36418
0.740262
0.875849
0.735335
0.592617
0.452763
0.313815
0.175467
0.0418982
1.17308
1.37993
0.747396
0.863708
0.73347
0.592232
0.452669
0.313803
0.175585
0.0427652
1.18441
1.37631
0.779414
0.854457
0.731564
0.591825
0.452569
0.313787
0.175676
0.0433912
1.20229
1.35739
0.821649
0.849055
0.729793
0.591411
0.452465
0.313767
0.175736
0.0437969
1.22144
1.33172
0.861141
0.846602
0.728252
0.591002
0.452358
0.313743
0.175763
0.0439957
1.23601
1.30674
0.893775
0.845813
0.726943
0.590606
0.452251
0.313715
0.175756
0.0439945
1.24268
1.28727
0.920856
0.845895
0.725832
0.59023
0.452146
0.313683
0.175715
0.0437933
1.24101
1.27556
0.943747
0.846413
0.724877
0.589877
0.452045
0.313649
0.175641
0.0433853
1.23085
1.27149
0.962502
0.847116
0.724055
0.589551
0.451949
0.313614
0.175537
0.042757
1.213
1.27322
0.976883
0.84781
0.723352
0.589256
0.451861
0.313579
0.175407
0.0418879
1.19143
1.27815
0.987218
0.848327
0.722742
0.588993
0.451781
0.313544
0.175254
0.0407488
1.17263
1.28405
0.994185
0.848549
0.722196
0.588761
0.45171
0.313513
0.175085
0.0393012
1.16163
1.28899
0.998415
0.848412
0.72169
0.588559
0.45165
0.313486
0.174907
0.037482
1.15882
1.29211
1.00069
0.847945
0.721208
0.588379
0.451599
0.313467
0.174755
0.0349668
1.16003
1.29501
1.00121
0.847254
0.720812
0.588251
0.451565
0.313458
0.174841
0.0317872
0
0
0.86491
0.91084
0.741847
0.593988
0.45308
0.313864
0.17508
0.0327278
0
0
0.859648
0.905738
0.740895
0.593812
0.453042
0.313857
0.174992
0.035921
0
0
0.834279
0.90353
0.739872
0.593571
0.452987
0.31385
0.175142
0.0384539
0
0
0.835595
0.899369
0.738679
0.593298
0.452923
0.313846
0.175317
0.0402887
1.16748
1.33147
0.767254
0.89045
0.737277
0.592985
0.452848
0.31384
0.17548
0.0417483
1.16808
1.36872
0.737435
0.877749
0.735623
0.592634
0.452763
0.313832
0.175626
0.0428963
1.17468
1.385
0.739544
0.865245
0.733752
0.592251
0.45267
0.313821
0.175747
0.0437713
1.19181
1.38136
0.764457
0.855189
0.731801
0.591846
0.452571
0.313805
0.17584
0.044403
1.21746
1.3614
0.802807
0.848529
0.729933
0.591428
0.452467
0.313785
0.175901
0.0448124
1.24518
1.33266
0.845612
0.845119
0.728268
0.591011
0.45236
0.313761
0.175929
0.0450132
1.26739
1.30332
0.885436
0.844103
0.726858
0.590606
0.452254
0.313733
0.175922
0.045012
1.27802
1.27943
0.918287
0.844442
0.725689
0.590224
0.452149
0.313702
0.17588
0.0448088
1.27605
1.26505
0.943625
0.845376
0.724731
0.58987
0.452048
0.313668
0.175805
0.0443971
1.2615
1.26078
0.962687
0.846444
0.723944
0.589549
0.451953
0.313633
0.1757
0.0437632
1.23593
1.26401
0.976905
0.847395
0.723282
0.589259
0.451865
0.313597
0.175566
0.0428861
1.20597
1.27146
0.98725
0.848085
0.722704
0.588999
0.451786
0.313562
0.17541
0.0417362
1.17957
1.27996
0.994287
0.848417
0.722181
0.588769
0.451715
0.31353
0.175237
0.040275
1.16292
1.28698
0.99856
0.848341
0.721688
0.588568
0.451656
0.313503
0.175054
0.0384388
1.15723
1.2914
1.00086
0.847906
0.721213
0.588389
0.451604
0.313483
0.174898
0.0359045
1.15755
1.29482
1.00144
0.847234
0.72082
0.588261
0.45157
0.313473
0.174982
0.0327105
0
0
0.86491
0.91084
0.741847
0.593988
0.45308
0.313864
0.17508
0.0327278
0
0
0.859648
0.905738
0.740895
0.593812
0.453042
0.313857
0.174992
0.035921
0
0
0.834279
0.90353
0.739872
0.593571
0.452987
0.31385
0.175142
0.0384539
0
0
0.835595
0.899369
0.738679
0.593298
0.452923
0.313846
0.175317
0.0402887
1.16748
1.33147
0.767254
0.89045
0.737277
0.592985
0.452848
0.31384
0.17548
0.0417483
1.16808
1.36872
0.737435
0.877749
0.735623
0.592634
0.452763
0.313832
0.175626
0.0428963
1.17468
1.385
0.739544
0.865245
0.733752
0.592251
0.45267
0.313821
0.175747
0.0437713
1.19181
1.38136
0.764457
0.855189
0.731801
0.591846
0.452571
0.313805
0.17584
0.044403
1.21746
1.3614
0.802807
0.848529
0.729933
0.591428
0.452467
0.313785
0.175901
0.0448124
1.24518
1.33266
0.845612
0.845119
0.728268
0.591011
0.45236
0.313761
0.175929
0.0450132
1.26739
1.30332
0.885436
0.844103
0.726858
0.590606
0.452254
0.313733
0.175922
0.045012
1.27802
1.27943
0.918287
0.844442
0.725689
0.590224
0.452149
0.313702
0.17588
0.0448088
1.27605
1.26505
0.943625
0.845376
0.724731
0.58987
0.452048
0.313668
0.175805
0.0443971
1.2615
1.26078
0.962687
0.846444
0.723944
0.589549
0.451953
0.313633
0.1757
0.0437632
1.23593
1.26401
0.976905
0.847395
0.723282
0.589259
0.451865
0.313597
0.175566
0.0428861
1.20597
1.27146
0.98725
0.848085
0.722704
0.588999
0.451786
0.313562
0.17541
0.0417362
1.17957
1.27996
0.994287
0.848417
0.722181
0.588769
0.451715
0.31353
0.175237
0.040275
1.16292
1.28698
0.99856
0.848341
0.721688
0.588568
0.451656
0.313503
0.175054
0.0384388
1.15723
1.2914
1.00086
0.847906
0.721213
0.588389
0.451604
0.313483
0.174898
0.0359045
1.15755
1.29482
1.00144
0.847234
0.72082
0.588261
0.45157
0.313473
0.174982
0.0327105
0
0
0.862948
0.909517
0.74165
0.593979
0.453081
0.31385
0.174939
0.0318046
0
0
0.85767
0.904301
0.740694
0.593804
0.453044
0.313843
0.174849
0.0349833
0
0
0.832669
0.901838
0.739656
0.593563
0.452988
0.313835
0.174995
0.0374974
0
0
0.834916
0.897424
0.738436
0.593287
0.452924
0.313831
0.175165
0.0393151
1.16982
1.32785
0.767679
0.888416
0.737006
0.592972
0.452848
0.313824
0.175325
0.040761
1.1695
1.36418
0.740262
0.875849
0.735335
0.592617
0.452763
0.313815
0.175467
0.0418982
1.17308
1.37993
0.747396
0.863708
0.73347
0.592232
0.452669
0.313803
0.175585
0.0427652
1.18441
1.37631
0.779414
0.854457
0.731564
0.591825
0.452569
0.313787
0.175676
0.0433912
1.20229
1.35739
0.821649
0.849055
0.729793
0.591411
0.452465
0.313767
0.175736
0.0437969
1.22144
1.33172
0.861141
0.846602
0.728252
0.591002
0.452358
0.313743
0.175763
0.0439957
1.23601
1.30674
0.893775
0.845813
0.726943
0.590606
0.452251
0.313715
0.175756
0.0439945
1.24268
1.28727
0.920856
0.845895
0.725832
0.59023
0.452146
0.313683
0.175715
0.0437933
1.24101
1.27556
0.943747
0.846413
0.724877
0.589877
0.452045
0.313649
0.175641
0.0433853
1.23085
1.27149
0.962502
0.847116
0.724055
0.589551
0.451949
0.313614
0.175537
0.042757
1.213
1.27322
0.976883
0.84781
0.723352
0.589256
0.451861
0.313579
0.175407
0.0418879
1.19143
1.27815
0.987218
0.848327
0.722742
0.588993
0.451781
0.313544
0.175254
0.0407488
1.17263
1.28405
0.994185
0.848549
0.722196
0.588761
0.45171
0.313513
0.175085
0.0393012
1.16163
1.28899
0.998415
0.848412
0.72169
0.588559
0.45165
0.313486
0.174907
0.037482
1.15882
1.29211
1.00069
0.847945
0.721208
0.588379
0.451599
0.313467
0.174755
0.0349668
1.16003
1.29501
1.00121
0.847254
0.720812
0.588251
0.451565
0.313458
0.174841
0.0317872
0
0
0.857051
0.907227
0.741324
0.593971
0.453084
0.313828
0.174689
0.029886
0
0
0.85118
0.901738
0.740372
0.593798
0.453047
0.31382
0.174593
0.033006
0
0
0.825608
0.898695
0.739309
0.593558
0.452992
0.313811
0.174728
0.0354634
0
0
0.830442
0.893686
0.738035
0.593279
0.452927
0.313805
0.174887
0.0372387
1.17654
1.32559
0.76737
0.88445
0.736551
0.592957
0.452851
0.313797
0.175036
0.0386534
1.17493
1.35839
0.751426
0.8723
0.734857
0.592597
0.452764
0.313787
0.17517
0.0397679
1.17458
1.36964
0.77298
0.861779
0.733047
0.59221
0.452669
0.313774
0.175283
0.0406185
1.17768
1.36409
0.809803
0.854637
0.73128
0.591807
0.452568
0.313757
0.175369
0.0412332
1.18287
1.34845
0.845418
0.850605
0.729677
0.591399
0.452463
0.313736
0.175426
0.0416319
1.18804
1.33016
0.876488
0.848647
0.728273
0.590995
0.452355
0.313711
0.175452
0.0418275
1.19175
1.31393
0.903709
0.847844
0.727046
0.590602
0.452247
0.313683
0.175445
0.0418263
1.19284
1.30151
0.927231
0.847668
0.725968
0.590226
0.452141
0.313651
0.175405
0.0416282
1.19128
1.29312
0.947129
0.847824
0.725016
0.589873
0.452039
0.313617
0.175334
0.0412271
1.18701
1.28856
0.963641
0.848125
0.724175
0.589544
0.451942
0.313582
0.175234
0.0406101
1.18042
1.2874
0.976956
0.848441
0.72343
0.589244
0.451852
0.313547
0.175109
0.0397573
1.17303
1.28869
0.98704
0.848663
0.72277
0.588975
0.451771
0.313514
0.174964
0.038641
1.1667
1.29074
0.993947
0.848698
0.722187
0.588738
0.4517
0.313484
0.174806
0.0372245
1.16363
1.29222
0.998135
0.848468
0.721663
0.588534
0.45164
0.313458
0.174639
0.0354478
1.16452
1.29331
1.00041
0.847959
0.721174
0.588356
0.451589
0.313441
0.174498
0.0329891
1.16697
1.2954
1.00082
0.847247
0.720778
0.588229
0.451556
0.313432
0.17459
0.0298684
0
0
0.846748
0.905276
0.740991
0.593973
0.45309
0.313808
0.174412
0.0268765
0
0
0.841463
0.899095
0.740106
0.593814
0.453056
0.313799
0.174305
0.0297288
0
0
0.812109
0.895222
0.739064
0.593589
0.453004
0.31379
0.174408
0.0319957
0
0
0.814843
0.888878
0.737745
0.59331
0.452939
0.313781
0.174542
0.0336819
1.18943
1.33638
0.773183
0.879392
0.736217
0.592985
0.452861
0.313772
0.174672
0.0350462
1.18758
1.35333
0.779541
0.86897
0.734542
0.592622
0.452773
0.31376
0.174794
0.0361274
1.18396
1.35409
0.805293
0.861136
0.732847
0.592233
0.452676
0.313745
0.174898
0.0369565
1.17905
1.34757
0.834237
0.856114
0.731238
0.591827
0.452573
0.313726
0.174979
0.0375574
1.17358
1.33894
0.862823
0.85287
0.729746
0.591414
0.452465
0.313704
0.175032
0.0379479
1.16832
1.32964
0.889699
0.8508
0.728378
0.591003
0.452354
0.313678
0.175056
0.0381396
1.16428
1.32055
0.913509
0.849602
0.727141
0.590603
0.452244
0.313649
0.175048
0.0381383
1.16155
1.31258
0.93404
0.849001
0.726033
0.590218
0.452135
0.313617
0.17501
0.0379441
1.16011
1.30629
0.951476
0.848777
0.725047
0.589856
0.45203
0.313583
0.174942
0.0375511
1.15999
1.30182
0.966001
0.848757
0.724171
0.589519
0.451931
0.313549
0.174848
0.0369478
1.16157
1.299
0.97776
0.8488
0.723394
0.589211
0.451839
0.313514
0.174732
0.0361165
1.16492
1.29735
0.986887
0.848796
0.722703
0.588934
0.451756
0.313482
0.174599
0.0350334
1.16912
1.29626
0.99353
0.84867
0.722088
0.588691
0.451684
0.313453
0.174459
0.0336674
1.17352
1.29533
0.997846
0.848363
0.721548
0.588485
0.451624
0.31343
0.174318
0.0319796
1.17725
1.29491
1.0002
0.847854
0.721073
0.588314
0.451576
0.313415
0.174208
0.0297116
1.17984
1.29605
1.00051
0.847171
0.720701
0.588195
0.451544
0.313407
0.174311
0.0268585
0
0
0.838105
0.906171
0.740811
0.59398
0.453094
0.313797
0.174251
0.0232348
0
0
0.834898
0.899621
0.740218
0.593854
0.453065
0.313792
0.174234
0.0249705
0
0
0.80541
0.895851
0.739286
0.593649
0.453017
0.313786
0.174288
0.026873
0
0
0.791795
0.887143
0.738054
0.593375
0.452952
0.313777
0.174385
0.0285429
1.20124
1.34124
0.793186
0.878575
0.736547
0.593045
0.452873
0.313766
0.174497
0.0298964
1.19976
1.3424
0.806909
0.870365
0.734881
0.592673
0.452783
0.313753
0.174607
0.0309677
1.19478
1.34221
0.825669
0.863492
0.733167
0.592273
0.452684
0.313736
0.174704
0.0317885
1.18697
1.33984
0.85012
0.858242
0.731491
0.591856
0.452578
0.313717
0.174781
0.0323832
1.17868
1.33521
0.875436
0.854578
0.729923
0.591432
0.452467
0.313693
0.174832
0.0327697
1.17148
1.32942
0.898988
0.852141
0.728494
0.591011
0.452354
0.313667
0.174855
0.0329594
1.16592
1.32332
0.920149
0.850607
0.727207
0.590601
0.452241
0.313637
0.174847
0.032958
1.16232
1.31749
0.938735
0.849721
0.726056
0.590207
0.45213
0.313605
0.17481
0.0327657
1.16105
1.3123
0.954708
0.849264
0.725033
0.589835
0.452023
0.313571
0.174744
0.0323767
1.16213
1.30795
0.968114
0.849055
0.724124
0.589489
0.451922
0.313536
0.174653
0.0317796
1.16546
1.30449
0.979043
0.848947
0.723318
0.589174
0.451828
0.313503
0.174544
0.0309566
1.17088
1.30187
0.987601
0.848823
0.722602
0.58889
0.451744
0.313471
0.174423
0.0298833
1.17794
1.29999
0.99391
0.848595
0.721968
0.588642
0.451671
0.313443
0.174302
0.0285279
1.18511
1.29856
0.99812
0.84822
0.721413
0.588434
0.45161
0.31342
0.174196
0.0268566
1.18985
1.29759
1.00044
0.847743
0.720966
0.588275
0.451565
0.313403
0.174137
0.024953
1.19133
1.29724
1.00079
0.8472
0.720658
0.588175
0.451538
0.313394
0.17415
0.0232167

VECTORS velocity float
0 0 0
0 0 0
0.661507 -0.0277326 -0.0049362
0.616033 -0.00167709 0.00096811
0.632324 -0.000504357 0.00013662
0.637686 -0.000117293 3.43395e-05
0.638902 -2.56309e-05 8.21868e-06
0.639215 -7.91398e-06 -3.68694e-06
0.639433 1.49467e-05 -5.39431e-05
0.670715 -0.00211563 -0.00200123
0 0 0
0 0 0
-0.0707157 -0.082269 -0.00411332
0.644131 -0.0104322 0.000789484
0.720052 -0.00203821 0.000241197
0.730771 -0.000426926 5.87823e-05
0.732738 -9.16839e-05 1.33156e-05
0.7332 -2.69812e-05 -2.57778e-06
0.734107 -2.53421e-05 -4.59869e-05
0.749734 -0.00439249 -0.00264656
0 0 0
0 0 0
0.687575 -0.140661 -0.0024738
0.691818 -0.0213243 0.000584982
0.735194 -0.00399014 0.000213142
0.745039 -0.000817743 5.96178e-05
0.747085 -0.000175077 1.40603e-05
0.747572 -4.94998e-05 -2.68085e-06
0.748453 -0.000127187 -5.75314e-05
0.760035 -0.00424829 -0.0027766
0 0 0
0 0 0
-0.0566939 -0.20222 -0.000546011
0.666331 -0.0311747 -0.000198018
0.736721 -0.00590011 0.000167582
0.747416 -0.00121002 5.60936e-05
0.749419 -0.000259334 1.34665e-05
0.749883 -7.12039e-05 -3.12381e-06
0.750588 -0.000197699 -6.94064e-05
0.761672 -0.00358447 -0.00281621
0.351123 -0.0145284 -0.0308173
0.684332 0.00869283 -0.0242067
0.688679 -0.234947 0.0114131
0.695581 -0.0414565 0.00120959
0.739244 -0.00773051 0.000234702
0.74796 -0.00157715 5.44644e-05
0.749732 -0.000337835 1.22327e-05
0.750148 -9.01542e-05 -3.77401e-06
0.750693 -0.000227988 -7.53307e-05
0.762001 -0.00289781 -0.00282991
0.440144 -0.0387149 -0.039656
0.863251 0.0189506 -0.0287791
0.85167 -0.232298 0.0171553
0.724311 -0.0482357 0.00257405
0.741952 -0.00923607 0.000290425
0.748341 -0.00189699 5.00534e-05
0.749823 -0.000406912 1.04521e-05
0.750177 -0.000105307 -4.5433e-06
0.750592 -0.000227608 -7.88771e-05
0.76216 -0.0022742 -0.00283882
0.490109 -0.052314 -0.0450519
0.899616 0.0194759 -0.0268883
0.892025 -0.2185 0.0136999
0.740082 -0.0520281 0.0024199
0.744168 -0.0103852 0.000253135
0.748727 -0.00215947 3.98574e-05
0.749902 -0.000464349 8.15872e-06
0.750187 -0.000116184 -5.34764e-06
0.750499 -0.000204432 -8.10546e-05
0.762274 -0.00170986 -0.00284492
0.530275 -0.0556048 -0.0489082
0.903494 0.0169259 -0.0240154
0.897581 -0.200066 0.00813828
0.750268 -0.0535115 0.00169323
0.746254 -0.0111837 0.000183332
0.749145 -0.00235803 2.78485e-05
0.74999 -0.000508492 5.61805e-06
0.750199 -0.000122641 -6.14037e-06
0.750431 -0.000164803 -8.24047e-05
0.762358 -0.00119115 -0.00284896
0.562934 -0.050745 -0.0518712
0.901155 0.0142128 -0.0217868
0.896118 -0.179556 0.00425892
0.758871 -0.0531212 0.00101937
0.748413 -0.0116299 0.000110237
0.749596 -0.00248772 1.56518e-05
0.750084 -0.000538125 2.97309e-06
0.750214 -0.000124767 -6.89336e-06
0.750388 -0.000113925 -8.32251e-05
0.762414 -0.000704318 -0.00285143
0.58831 -0.039631 -0.0543201
0.898169 0.0124778 -0.020396
0.893551 -0.158802 0.00181842