# vtk DataFile Version 2.0
TestTestTest
ASCII

DATASET STRUCTURED_GRID
DIMENSIONS 11 21 11
POINTS 2541 float
0 0 0
0.5 0 0
1 0 0
1.5 0 0
2 0 0
2.5 0 0
3 0 0
3.5 0 0
4 0 0
4.5 0 0
5 0 0
0 0.05 0
0.5 0.05 0
1 0.05 0
1.5 0.05 0
2 0.05 0
2.5 0.05 0
3 0.05 0
3.5 0.05 0
4 0.05 0
4.5 0.05 0
5 0.05 0
0 0.1 0
0.5 0.1 0
1 0.1 0
1.5 0.1 0
2 0.1 0
2.5 0.1 0
3 0.1 0
3.5 0.1 0
4 0.1 0
4.5 0.1 0
5 0.1 0
0 0.15 0
0.5 0.15 0
1 0.15 0
1.5 0.15 0
2 0.15 0
2.5 0.15 0
3 0.15 0
3.5 0.15 0
4 0.15 0
4.5 0.15 0
5 0.15 0
0 0.2 0
0.5 0.2 0
1 0.2 0
1.5 0.2 0
2 0.2 0
2.5 0.2 0
3 0.2 0
3.5 0.2 0
4 0.2 0
4.5 0.2 0
5 0.2 0
0 0.25 0
0.5 0.25 0
1 0.25 0
1.5 0.25 0
2 0.25 0
2.5 0.25 0
3 0.25 0
3.5 0.25 0
4 0.25 0
4.5 0.25 0
5 0.25 0
0 0.3 0
0.5 0.3 0
1 0.3 0
1.5 0.3 0
2 0.3 0
2.5 0.3 0
3 0.3 0
3.5 0.3 0
4 0.3 0
4.5 0.3 0
5 0.3 0
0 0.35 0
0.5 0.35 0
1 0.35 0
1.5 0.35 0
2 0.35 0
2.5 0.35 0
3 0.35 0
3.5 0.35 0
4 0.35 0
4.5 0.35 0
5 0.35 0
0 0.4 0
0.5 0.4 0
1 0.4 0
1.5 0.4 0
2 0.4 0
2.5 0.4 0
3 0.4 0
3.5 0.4 0
4 0.4 0
4.5 0.4 0
5 0.4 0
0 0.45 0
0.5 0.45 0
1 0.45 0
1.5 0.45 0
2 0.45 0
2.5 0.45 0
3 0.45 0
3.5 0.45 0
4 0.45 0
4.5 0.45 0
5 0.45 0
0 0.5 0
0.5 0.5 0
1 0.5 0
1.5 0.5 0
2 0.5 0
2.5 0.5 0
3 0.5 0
3.5 0.5 0
4 0.5 0
4.5 0.5 0
5 0.5 0
0 0.55 0
0.5 0.55 0
1 0.55 0
1.5 0.55 0
2 0.55 0
2.5 0.55 0
3 0.55 0
3.5 0.55 0
4 0.55 0
4.5 0.55 0
5 0.55 0
0 0.6 0
0.5 0.6 0
1 0.6 0
1.5 0.6 0
2 0.6 0
2.5 0.6 0
3 0.6 0
3.5 0.6 0
4 0.6 0
4.5 0.6 0
5 0.6 0
0 0.65 0
0.5 0.65 0
1 0.65 0
1.5 0.65 0
2 0.65 0
2.5 0.65 0
3 0.65 0
3.5 0.65 0
4 0.65 0
4.5 0.65 0
5 0.65 0
0 0.7 0
0.5 0.7 0
1 0.7 0
1.5 0.7 0
2 0.7 0
2.5 0.7 0
3 0.7 0
3.5 0.7 0
4 0.7 0
4.5 0.7 0
5 0.7 0
0 0.75 0
0.5 0.75 0
1 0.75 0
1.5 0.75 0
2 0.75 0
2.5 0.75 0
3 0.75 0
3.5 0.75 0
4 0.75 0
4.5 0.75 0
5 0.75 0
0 0.8 0
0.5 0.8 0
1 0.8 0
1.5 0.8 0
2 0.8 0
2.5 0.8 0
3 0.8 0
3.5 0.8 0
4 0.8 0
4.5 0.8 0
5 0.8 0
0 0.85 0
0.5 0.85 0
1 0.85 0
1.5 0.85 0
2 0.85 0
2.5 0.85 0
3 0.85 0
3.5 0.85 0
4 0.85 0
4.5 0.85 0
5 0.85 0
0 0.9 0
0.5 0.9 0
1 0.9 0
1.5 0.9 0
2 0.9 0
2.5 0.9 0
3 0.9 0
3.5 0.9 0
4 0.9 0
4.5 0.9 0
5 0.9 0
0 0.95 0
0.5 0.95 0
1 0.95 0
1.5 0.95 0
2 0.95 0
2.5 0.95 0
3 0.95 0
3.5 0.95 0
4 0.95 0
4.5 0.95 0
5 0.95 0
0 1 0
0.5 1 0
1 1 0
1.5 1 0
2 1 0
2.5 1 0
3 1 0
3.5 1 0
4 1 0
4.5 1 0
5 1 0
0 0 0.1
0.5 0 0.1
1 0 0.1
1.5 0 0.1
2 0 0.1
2.5 0 0.1
3 0 0.1
3.5 0 0.1
4 0 0.1
4.5 0 0.1
5 0 0.1
0 0.05 0.1
0.5 0.05 0.1
1 0.05 0.1
1.5 0.05 0.1
2 0.05 0.1
2.5 0.05 0.1
3 0.05 0.1
3.5 0.05 0.1
4 0.05 0.1
4.5 0.05 0.1
5 0.05 0.1
0 0.1 0.1
0.5 0.1 0.1
1 0.1 0.1
1.5 0.1 0.1
2 0.1 0.1
2.5 0.1 0.1
3 0.1 0.1
3.5 0.1 0.1
4 0.1 0.1
4.5 0.1 0.1
5 0.1 0.1
0 0.15 0.1
0.5 0.15 0.1
1 0.15 0.1
1.5 0.15 0.1
2 0.15 0.1
2.5 0.15 0.1
3 0.15 0.1
3.5 0.15 0.1
4 0.15 0.1
4.5 0.15 0.1
5 0.15 0.1
0 0.2 0.1
0.5 0.2 0.1
1 0.2 0.1
1.5 0.2 0.1
2 0.2 0.1
2.5 0.2 0.1
3 0.2 0.1
3.5 0.2 0.1
4 0.2 0.1
4.5 0.2 0.1
5 0.2 0.1
0 0.25 0.1
0.5 0.25 0.1
1 0.25 0.1
1.5 0.25 0.1
2 0.25 0.1
2.5 0.25 0.1
3 0.25 0.1
3.5 0.25 0.1
4 0.25 0.1
4.5 0.25 0.1
5 0.25 0.1
0 0.3 0.1
0.5 0.3 0.1
1 0.3 0.1
1.5 0.3 0.1
2 0.3 0.1
2.5 0.3 0.1
3 0.3 0.1
3.5 0.3 0.1
4 0.3 0.1
4.5 0.3 0.1
5 0.3 0.1
0 0.35 0.1
0.5 0.35 0.1
1 0.35 0.1
1.5 0.35 0.1
2 0.35 0.1
2.5 0.35 0.1
3 0.35 0.1
3.5 0.35 0.1
4 0.35 0.1
4.5 0.35 0.1
5 0.35 0.1
0 0.4 0.1
0.5 0.4 0.1
1 0.4 0.1
1.5 0.4 0.1
2 0.4 0.1
2.5 0.4 0.1
3 0.4 0.1
3.5 0.4 0.1
4 0.4 0.1
4.5 0.4 0.1
5 0.4 0.1
0 0.45 0.1
0.5 0.45 0.1
1 0.45 0.1
1.5 0.45 0.1
2 0.45 0.1
2.5 0.45 0.1
3 0.45 0.1
3.5 0.45 0.1
4 0.45 0.1
4.5 0.45 0.1
5 0.45 0.1
0 0.5 0.1
0.5 0.5 0.1
1 0.5 0.1
1.5 0.5 0.1
2 0.5 0.1
2.5 0.5 0.1
3 0.5 0.1
3.5 0.5 0.1
4 0.5 0.1
4.5 0.5 0.1
5 0.5 0.1
0 0.55 0.1
0.5 0.55 0.1
1 0.55 0.1
1.5 0.55 0.1
2 0.55 0.1
2.5 0.55 0.1
3 0.55 0.1
3.5 0.55 0.1
4 0.55 0.1
4.5 0.55 0.1
5 0.55 0.1
0 0.6 0.1
0.5 0.6 0.1
1 0.6 0.1
1.5 0.6 0.1
2 0.6 0.1
2.5 0.6 0.1
3 0.6 0.1
3.5 0.6 0.1
4 0.6 0.1
4.5 0.6 0.1
5 0.6 0.1
0 0.65 0.1
0.5 0.65 0.1
1 0.65 0.1
1.5 0.65 0.1
2 0.65 0.1
2.5 0.65 0.1
3 0.65 0.1
3.5 0.65 0.1
4 0.65 0.1
4.5 0.65 0.1
5 0.65 0.1
0 0.7 0.1
0.5 0.7 0.1
1 0.7 0.1
1.5 0.7 0.1
2 0.7 0.1
2.5 0.7 0.1
3 0.7 0.1
3.5 0.7 0.1
4 0.7 0.1
4.5 0.7 0.1
5 0.7 0.1
0 0.75 0.1
0.5 0.75 0.1
1 0.75 0.1
1.5 0.75 0.1
2 0.75 0.1
2.5 0.75 0.1
3 0.75 0.1
3.5 0.75 0.1
4 0.75 0.1
4.5 0.75 0.1
5 0.75 0.1
0 0.8 0.1
0.5 0.8 0.1
1 0.8 0.1
1.5 0.8 0.1
2 0.8 0.1
2.5 0.8 0.1
3 0.8 0.1
3.5 0.8 0.1
4 0.8 0.1
4.5 0.8 0.1
5 0.8 0.1
0 0.85 0.1
0.5 0.85 0.1
1 0.85 0.1
1.5 0.85 0.1
2 0.85 0.1
2.5 0.85 0.1
3 0.85 0.1
3.5 0.85 0.1
4 0.85 0.1
4.5 0.85 0.1
5 0.85 0.1
0 0.9 0.1
0.5 0.9 0.1
1 0.9 0.1
1.5 0.9 0.1
2 0.9 0.1
2.5 0.9 0.1
3 0.9 0.1
3.5 0.9 0.1
4 0.9 0.1
4.5 0.9 0.1
5 0.9 0.1
0 0.95 0.1
0.5 0.95 0.1
1 0.95 0.1
1.5 0.95 0.1
2 0.95 0.1
2.5 0.95 0.1
3 0.95 0.1
3.5 0.95 0.1
4 0.95 0.1
4.5 0.95 0.1
5 0.95 0.1
0 1 0.1
0.5 1 0.1
1 1 0.1
1.5 1 0.1
2 1 0.1
2.5 1 0.1
3 1 0.1
3.5 1 0.1
4 1 0.1
4.5 1 0.1
5 1 0.1
0 0 0.2
0.5 0 0.2
1 0 0.2
1.5 0 0.2
2 0 0.2
2.5 0 0.2
3 0 0.2
3.5 0 0.2
4 0 0.2
4.5 0 0.2
5 0 0.2
0 0.05 0.2
0.5 0.05 0.2
1 0.05 0.2
1.5 0.05 0.2
2 0.05 0.2
2.5 0.05 0.2
3 0.05 0.2
3.5 0.05 0.2
4 0.05 0.2
4.5 0.05 0.2
5 0.05 0.2
0 0.1 0.2
0.5 0.1 0.2
1 0.1 0.2
1.5 0.1 0.2
2 0.1 0.2
2.5 0.1 0.2
3 0.1 0.2
3.5 0.1 0.2
4 0.1 0.2
4.5 0.1 0.2
5 0.1 0.2
0 0.15 0.2
0.5 0.15 0.2
1 0.15 0.2
1.5 0.15 0.2
2 0.15 0.2
2.5 0.15 0.2
3 0.15 0.2
3.5 0.15 0.2
4 0.15 0.2
4.5 0.15 0.2
5 0.15 0.2
0 0.2 0.2
0.5 0.2 0.2
1 0.2 0.2
1.5 0.2 0.2
2 0.2 0.2
2.5 0.2 0.2
3 0.2 0.2
3.5 0.2 0.2
4 0.2 0.2
4.5 0.2 0.2
5 0.2 0.2
0 0.25 0.2
0.5 0.25 0.2
1 0.25 0.2
1.5 0.25 0.2
2 0.25 0.2
2.5 0.25 0.2
3 0.25 0.2
3.5 0.25 0.2
4 0.25 0.2
4.5 0.25 0.2
5 0.25 0.2
0 0.3 0.2
0.5 0.3 0.2
1 0.3 0.2
1.5 0.3 0.2
2 0.3 0.2
2.5 0.3 0.2
3 0.3 0.2
3.5 0.3 0.2
4 0.3 0.2
4.5 0.3 0.2
5 0.3 0.2
0 0.35 0.2
0.5 0.35 0.2
1 0.35 0.2
1.5 0.35 0.2
2 0.35 0.2
2.5 0.35 0.2
3 0.35 0.2
3.5 0.35 0.2
4 0.35 0.2
4.5 0.35 0.2
5 0.35 0.2
0 0.4 0.2
0.5 0.4 0.2
1 0.4 0.2
1.5 0.4 0.2
2 0.4 0.2
2.5 0.4 0.2
3 0.4 0.2
3.5 0.4 0.2
4 0.4 0.2
4.5 0.4 0.2
5 0.4 0.2
0 0.45 0.2
0.5 0.45 0.2
1 0.45 0.2
1.5 0.45 0.2
2 0.45 0.2
2.5 0.45 0.2
3 0.45 0.2
3.5 0.45 0.2
4 0.45 0.2
4.5 0.45 0.2
5 0.45 0.2
0 0.5 0.2
0.5 0.5 0.2
1 0.5 0.2
1.5 0.5 0.2
2 0.5 0.2
2.5 0.5 0.2
3 0.5 0.2
3.5 0.5 0.2
4 0.5 0.2
4.5 0.5 0.2
5 0.5 0.2
0 0.55 0.2
0.5 0.55 0.2
1 0.55 0.2
1.5 0.55 0.2
2 0.55 0.2
2.5 0.55 0.2
3 0.55 0.2
3.5 0.55 0.2
4 0.55 0.2
4.5 0.55 0.2
5 0.55 0.2
0 0.6 0.2
0.5 0.6 0.2
1 0.6 0.2
1.5 0.6 0.2
2 0.6 0.2
2.5 0.6 0.2
3 0.6 0.2
3.5 0.6 0.2
4 0.6 0.2
4.5 0.6 0.2
5 0.6 0.2
0 0.65 0.2
0.5 0.65 0.2
1 0.65 0.2
1.5 0.65 0.2
2 0.65 0.2
2.5 0.65 0.2
3 0.65 0.2
3.5 0.65 0.2
4 0.65 0.2
4.5 0.65 0.2
5 0.65 0.2
0 0.7 0.2
0.5 0.7 0.2
1 0.7 0.2
1.5 0.7 0.2
2 0.7 0.2
2.5 0.7 0.2
3 0.7 0.2
3.5 0.7 0.2
4 0.7 0.2
4.5 0.7 0.2
5 0.7 0.2
0 0.75 0.2
0.5 0.75 0.2
1 0.75 0.2
1.5 0.75 0.2
2 0.75 0.2
2.5 0.75 0.2
3 0.75 0.2
3.5 0.75 0.2
4 0.75 0.2
4.5 0.75 0.2
5 0.75 0.2
0 0.8 0.2
0.5 0.8 0.2
1 0.8 0.2
1.5 0.8 0.2
2 0.8 0.2
2.5 0.8 0.2
3 0.8 0.2
3.5 0.8 0.2
4 0.8 0.2
4.5 0.8 0.2
5 0.8 0.2
0 0.85 0.2
0.5 0.85 0.2
1 0.85 0.2
1.5 0.85 0.2
2 0.85 0.2
2.5 0.85 0.2
3 0.85 0.2
3.5 0.85 0.2
4 0.85 0.2
4.5 0.85 0.2
5 0.85 0.2
0 0.9 0.2
0.5 0.9 0.2
1 0.9 0.2
1.5 0.9 0.2
2 0.9 0.2
2.5 0.9 0.2
3 0.9 0.2
3.5 0.9 0.2
4 0.9 0.2
4.5 0.9 0.2
5 0.9 0.2
0 0.95 0.2
0.5 0.95 0.2
1 0.95 0.2
1.5 0.95 0.2
2 0.95 0.2
2.5 0.95 0.2
3 0.95 0.2
3.5 0.95 0.2
4 0.95 0.2
4.5 0.95 0.2
5 0.95 0.2
0 1 0.2
0.5 1 0.2
1 1 0.2
1.5 1 0.2
2 1 0.2
2.5 1 0.2
3 1 0.2
3.5 1 0.2
4 1 0.2
4.5 1 0.2
5 1 0.2
0 0 0.3
0.5 0 0.3
1 0 0.3
1.5 0 0.3
2 0 0.3
2.5 0 0.3
3 0 0.3
3.5 0 0.3
4 0 0.3
4.5 0 0.3
5 0 0.3
0 0.05 0.3
0.5 0.05 0.3
1 0.05 0.3
1.5 0.05 0.3
2 0.05 0.3
2.5 0.05 0.3
3 0.05 0.3
3.5 0.05 0.3
4 0.05 0.3
4.5 0.05 0.3
5 0.05 0.3
0 0.1 0.3
0.5 0.1 0.3
1 0.1 0.3
1.5 0.1 0.3
2 0.1 0.3
2.5 0.1 0.3
3 0.1 0.3
3.5 0.1 0.3
4 0.1 0.3
4.5 0.1 0.3
5 0.1 0.3
0 0.15 0.3
0.5 0.15 0.3
1 0.15 0.3
1.5 0.15 0.3
2 0.15 0.3
2.5 0.15 0.3
3 0.15 0.3
3.5 0.15 0.3
4 0.15 0.3
4.5 0.15 0.3
5 0.15 0.3
0 0.2 0.3
0.5 0.2 0.3
1 0.2 0.3
1.5 0.2 0.3
2 0.2 0.3
2.5 0.2 0.3
3 0.2 0.3
3.5 0.2 0.3
4 0.2 0.3
4.5 0.2 0.3
5 0.2 0.3
0 0.25 0.3
0.5 0.25 0.3
1 0.25 0.3
1.5 0.25 0.3
2 0.25 0.3
2.5 0.25 0.3
3 0.25 0.3
3.5 0.25 0.3
4 0.25 0.3
4.5 0.25 0.3
5 0.25 0.3
0 0.3 0.3
0.5 0.3 0.3
1 0.3 0.3
1.5 0.3 0.3
2 0.3 0.3
2.5 0.3 0.3
3 0.3 0.3
3.5 0.3 0.3
4 0.3 0.3
4.5 0.3 0.3
5 0.3 0.3
0 0.35 0.3
0.5 0.35 0.3
1 0.35 0.3
1.5 0.35 0.3
2 0.35 0.3
2.5 0.35 0.3
3 0.35 0.3
3.5 0.35 0.3
4 0.35 0.3
4.5 0.35 0.3
5 0.35 0.3
0 0.4 0.3
0.5 0.4 0.3
1 0.4 0.3
1.5 0.4 0.3
2 0.4 0.3
2.5 0.4 0.3
3 0.4 0.3
3.5 0.4 0.3
4 0.4 0.3
4.5 0.4 0.3
5 0.4 0.3
0 0.45 0.3
0.5 0.45 0.3
1 0.45 0.3
1.5 0.45 0.3
2 0.45 0.3
2.5 0.45 0.3
3 0.45 0.3
3.5 0.45 0.3
4 0.45 0.3
4.5 0.45 0.3
5 0.45 0.3
0 0.5 0.3
0.5 0.5 0.3
1 0.5 0.3
1.5 0.5 0.3
2 0.5 0.3
2.5 0.5 0.3
3 0.5 0.3
3.5 0.5 0.3
4 0.5 0.3
4.5 0.5 0.3
5 0.5 0.3
0 0.55 0.3
0.5 0.55 0.3
1 0.55 0.3
1.5 0.55 0.3
2 0.55 0.3
2.5 0.55 0.3
3 0.55 0.3
3.5 0.55 0.3
4 0.55 0.3
4.5 0.55 0.3
5 0.55 0.3
0 0.6 0.3
0.5 0.6 0.3
1 0.6 0.3
1.5 0.6 0.3
2 0.6 0.3
2.5 0.6 0.3
3 0.6 0.3
3.5 0.6 0.3
4 0.6 0.3
4.5 0.6 0.3
5 0.6 0.3
0 0.65 0.3
0.5 0.65 0.3
1 0.65 0.3
1.5 0.65 0.3
2 0.65 0.3
2.5 0.65 0.3
3 0.65 0.3
3.5 0.65 0.3
4 0.65 0.3
4.5 0.65 0.3
5 0.65 0.3
0 0.7 0.3
0.5 0.7 0.3
1 0.7 0.3
1.5 0.7 0.3
2 0.7 0.3
2.5 0.7 0.3
3 0.7 0.3
3.5 0.7 0.3
4 0.7 0.3
4.5 0.7 0.3
5 0.7 0.3
0 0.75 0.3
0.5 0.75 0.3
1 0.75 0.3
1.5 0.75 0.3
2 0.75 0.3
2.5 0.75 0.3
3 0.75 0.3
3.5 0.75 0.3
4 0.75 0.3
4.5 0.75 0.3
5 0.75 0.3
0 0.8 0.3
0.5 0.8 0.3
1 0.8 0.3
1.5 0.8 0.3
2 0.8 0.3
2.5 0.8 0.3
3 0.8 0.3
3.5 0.8 0.3
4 0.8 0.3
4.5 0.8 0.3
5 0.8 0.3
0 0.85 0.3
0.5 0.85 0.3
1 0.85 0.3
1.5 0.85 0.3
2 0.85 0.3
2.5 0.85 0.3
3 0.85 0.3
3.5 0.85 0.3
4 0.85 0.3
4.5 0.85 0.3
5 0.85 0.3
0 0.9 0.3
0.5 0.9 0.3
1 0.9 0.3
1.5 0.9 0.3
2 0.9 0.3
2.5 0.9 0.3
3 0.9 0.3
3.5 0.9 0.3
4 0.9 0.3
4.5 0.9 0.3
5 0.9 0.3
0 0.95 0.3
0.5 0.95 0.3
1 0.95 0.3
1.5 0.95 0.3
2 0.95 0.3
2.5 0.95 0.3
3 0.95 0.3
3.5 0.95 0.3
4 0.95 0.3
4.5 0.95 0.3
5 0.95 0.3
0 1 0.3
0.5 1 0.3
1 1 0.3
1.5 1 0.3
2 1 0.3
2.5 1 0.3
3 1 0.3
3.5 1 0.3
4 1 0.3
4.5 1 0.3
5 1 0.3
0 0 0.4
[...]
CELL_DATA 2000
SCALARS pressure float 1
LOOKUP_TABLE default
0
0
0.839236
0.907347
0.741776
0.594776
0.453707
0.314223
0.174488
0.0232502
0
0
0.836032
0.900784
0.741183
0.594649
0.453678
0.314218
0.174471
0.0249949
0
0
0.806456
0.897005
0.74025
0.594445
0.45363
0.314212
0.174525
0.0269026
0
0
0.79283
0.888282
0.739019
0.594171
0.453565
0.314203
0.174623
0.0285755
1.20458
1.34438
0.794263
0.879705
0.737514
0.593842
0.453486
0.314192
0.174734
0.0299315
1.20309
1.34548
0.808094
0.871501
0.735851
0.593471
0.453396
0.314179
0.174844
0.0310047
1.19808
1.34522
0.82696
0.864643
0.734142
0.593071
0.453297
0.314162
0.174942
0.031827
1.19024
1.34275
0.851507
0.859412
0.732471
0.592655
0.453192
0.314143
0.175019
0.0324229
1.18192
1.33804
0.876891
0.855767
0.730908
0.592232
0.453081
0.31412
0.17507
0.0328101
1.17468
1.33219
0.900495
0.853345
0.729484
0.591813
0.452968
0.314093
0.175093
0.0330002
1.1691
1.32605
0.921696
0.851826
0.728201
0.591403
0.452856
0.314063
0.175085
0.0329989
1.16549
1.32017
0.940314
0.850953
0.727055
0.591011
0.452745
0.314031
0.175048
0.0328062
1.1642
1.31495
0.95631
0.850506
0.726035
0.59064
0.452638
0.313997
0.174982
0.0324164
1.16528
1.31057
0.969734
0.850307
0.725131
0.590295
0.452536
0.313963
0.174891
0.0318181
1.16861
1.30709
0.980674
0.850207
0.724328
0.58998
0.452443
0.313929
0.174781
0.0309936
1.17404
1.30445
0.989241
0.850089
0.723615
0.589697
0.452359
0.313897
0.17466
0.0299183
1.18111
1.30255
0.995556
0.849866
0.722983
0.58945
0.452286
0.313869
0.174539
0.0285605
1.1883
1.30112
0.99977
0.849495
0.72243
0.589242
0.452225
0.313846
0.174434
0.0268862
1.19305
1.30015
1.00209
0.84902
0.721984
0.589083
0.45218
0.313829
0.174374
0.0249774
1.19455
1.2998
1.00244
0.848477
0.721675
0.588983
0.452153
0.31382
0.174387
0.023232
0
0
0.8479
0.906422
0.741952
0.594768
0.453703
0.314234
0.174649
0.0269005
0
0
0.842623
0.900232
0.741066
0.594609
0.453668
0.314225
0.174544
0.0297655
0
0
0.813208
0.896354
0.740025
0.594384
0.453616
0.314216
0.174648
0.0320346
0
0
0.815988
0.890001
0.738708
0.594105
0.453552
0.314207
0.174781
0.0337239
1.19272
1.33956
0.774199
0.880509
0.737183
0.593781
0.453474
0.314198
0.174911
0.0350908
1.19085
1.35651
0.78063
0.870092
0.735512
0.593419
0.453386
0.314186
0.175033
0.0361741
1.18718
1.35717
0.806543
0.862281
0.733822
0.593031
0.45329
0.314171
0.175137
0.0370047
1.18223
1.35054
0.835618
0.857286
0.732218
0.592626
0.453186
0.314153
0.175218
0.0376068
1.17671
1.34184
0.864301
0.854066
0.730731
0.592214
0.453079
0.314131
0.175271
0.0379981
1.1714
1.33247
0.891242
0.852015
0.729369
0.591805
0.452968
0.314105
0.175295
0.0381902
1.16732
1.32335
0.915095
0.850832
0.728137
0.591405
0.452858
0.314076
0.175288
0.0381889
1.16456
1.31535
0.935656
0.850244
0.727034
0.591022
0.452749
0.314044
0.175249
0.0379943
1.16311
1.30903
0.953113
0.850031
0.726052
0.590661
0.452645
0.31401
0.175182
0.0376005
1.163
1.30453
0.967651
0.850019
0.72518
0.590325
0.452546
0.313975
0.175087
0.0369961
1.16459
1.30167
0.979418
0.850069
0.724406
0.590018
0.452454
0.313941
0.174971
0.0361632
1.16796
1.29998
0.988548
0.850071
0.723717
0.589742
0.452372
0.313908
0.174838
0.035078
1.1722
1.29885
0.995194
0.849949
0.723106
0.589499
0.452299
0.31388
0.174698
0.0337094
1.17663
1.2979
0.99951
0.849645
0.722567
0.589293
0.452239
0.313856
0.174557
0.0320186
1.1804
1.29746
1.00186
0.849137
0.722093
0.589123
0.452191
0.313841
0.174447
0.0297483
1.183
1.29861
1.00217
0.848452
0.72172
0.589004
0.45216
0.313833
0.174549
0.0268826
0
0
0.858223
0.908346
0.742281
0.594765
0.453697
0.314254
0.174926
0.0299134
0
0
0.852358
0.902852
0.741328
0.594592
0.45366
0.314246
0.174832
0.0330452
0
0
0.826754
0.899807
0.740268
0.594352
0.453605
0.314237
0.174967
0.0355029
0
0
0.831629
0.894792
0.738996
0.594074
0.45354
0.314231
0.175126
0.0372808
1.17979
1.32881
0.768393
0.885553
0.737514
0.593753
0.453464
0.314224
0.175275
0.038698
1.17814
1.36166
0.752442
0.873408
0.735824
0.593394
0.453377
0.314213
0.175409
0.0398145
1.17774
1.37286
0.774144
0.862906
0.73402
0.593008
0.453283
0.3142
0.175521
0.0406667
1.18079
1.36721
0.811155
0.855795
0.732259
0.592606
0.453182
0.314183
0.175608
0.0412825
1.18592
1.35147
0.846904
0.851799
0.730662
0.592199
0.453076
0.314162
0.175665
0.041682
1.19104
1.33314
0.878063
0.849868
0.729264
0.591796
0.452969
0.314137
0.17569
0.0418779
1.1947
1.31689
0.905342
0.849084
0.728043
0.591405
0.452861
0.314109
0.175683
0.0418767
1.19577
1.30444
0.928898
0.848921
0.726969
0.59103
0.452755
0.314077
0.175644
0.0416783
1.19419
1.29602
0.948814
0.849086
0.726022
0.590678
0.452653
0.314044
0.175573
0.0412764
1.18992
1.29143
0.965332
0.849395
0.725184
0.59035
0.452557
0.314009
0.175473
0.0406583
1.18336
1.29022
0.978645
0.849716
0.724443
0.590051
0.452467
0.313974
0.175348
0.039804
1.17599
1.29145
0.988725
0.849943
0.723786
0.589782
0.452386
0.31394
0.175203
0.0386856
1.1697
1.29344
0.995629
0.849981
0.723205
0.589546
0.452315
0.31391
0.175045
0.0372666
1.16667
1.29485
0.999814
0.849754
0.722683
0.589343
0.452256
0.313885
0.174878
0.0354873
1.1676
1.2959
1.00208
0.849246
0.722195
0.589165
0.452205
0.313868
0.174737
0.0330283
1.17009
1.29798
1.00248
0.848531
0.721798
0.589038
0.452171
0.313859
0.174827
0.0298958
0
0
0.864123
0.910619
0.742603
0.594774
0.453694
0.314276
0.175176
0.0318339
0
0
0.858847
0.905398
0.741647
0.594598
0.453656
0.314269
0.175088
0.0350241
0
0
0.833809
0.902934
0.740611
0.594357
0.453601
0.314261
0.175234
0.0375381
0
0
0.836083
0.898516
0.739394
0.594083
0.453536
0.314257
0.175404
0.0393583
1.17305
1.33115
0.768688
0.889506
0.737967
0.593767
0.453461
0.31425
0.175563
0.0408066
1.17268
1.36753
0.741251
0.876945
0.7363
0.593414
0.453376
0.314242
0.175705
0.0419457
1.1762
1.38326
0.74851
0.864825
0.73444
0.593029
0.453283
0.314229
0.175824
0.0428143
1.18747
1.37955
0.780741
0.85561
0.732541
0.592624
0.453183
0.314213
0.175914
0.0434414
1.2053
1.36053
0.823167
0.850248
0.730777
0.592211
0.453078
0.314193
0.175974
0.0438478
1.22441
1.3348
0.862765
0.847828
0.729243
0.591804
0.452972
0.314169
0.176001
0.0440469
1.23893
1.3098
0.895455
0.847063
0.727941
0.591409
0.452865
0.314141
0.175994
0.0440457
1.24558
1.29032
0.92257
0.847158
0.726834
0.591034
0.452761
0.31411
0.175953
0.0438441
1.2439
1.27859
0.945474
0.847684
0.725884
0.590682
0.45266
0.314076
0.17588
0.0434354
1.23374
1.27449
0.964225
0.848391
0.725066
0.590358
0.452564
0.314041
0.175776
0.042806
1.2159
1.27616
0.978597
0.849089
0.724365
0.590063
0.452476
0.314005
0.175645
0.0419354
1.19434
1.28102
0.988923
0.849609
0.723758
0.589801
0.452396
0.313971
0.175492
0.0407944
1.17558
1.28684
0.995883
0.849834
0.723214
0.589569
0.452326
0.31394
0.175324
0.0393444
1.16463
1.29169
1.00011
0.8497
0.72271
0.589368
0.452266
0.313913
0.175146
0.0375228
1.16188
1.29474
1.00237
0.849234
0.72223
0.589189
0.452215
0.313894
0.174994
0.0350075
1.16314
1.29762
1.00288
0.84854
0.721833
0.589061
0.452181
0.313884
0.175078
0.0318165
0
0
0.866082
0.911935
0.742798
0.594782
0.453692
0.31429
0.175318
0.0327579
0
0
0.860817
0.906827
0.741846
0.594605
0.453655
0.314283
0.175231
0.0359625
0
0
0.835403
0.904618
0.740826
0.594365
0.4536
0.314276
0.175381
0.0384953
0
0
0.836739
0.900453
0.739635
0.594093
0.453536
0.314272
0.175555
0.0403325
1.1707
1.33482
0.768235
0.891533
0.738235
0.593781
0.453461
0.314266
0.175718
0.0417944
1.17125
1.37213
0.738401
0.878839
0.736586
0.59343
0.453376
0.314258
0.175864
0.0429443
1.17778
1.3884
0.740641
0.866357
0.73472
0.593049
0.453284
0.314247
0.175985
0.0438208
1.19486
1.38468
0.765774
0.85634
0.732776
0.592645
0.453185
0.314231
0.176078
0.0444536
1.22045
1.3646
0.804346
0.849726
0.730916
0.592228
0.453081
0.314211
0.176139
0.0448637
1.24813
1.33578
0.847298
0.846356
0.729259
0.591812
0.452974
0.314188
0.176167
0.0450648
1.27031
1.30641
0.887179
0.845363
0.727855
0.591409
0.452868
0.31416
0.17616
0.0450636
1.28091
1.28251
0.920034
0.845712
0.726692
0.591028
0.452763
0.314128
0.176118
0.0448601
1.27893
1.26813
0.945363
0.846651
0.725739
0.590676
0.452663
0.314094
0.176044
0.0444477
1.26438
1.26384
0.964419
0.847721
0.724955
0.590355
0.452568
0.314059
0.175938
0.0438127
1.23882
1.26702
0.97863
0.848675
0.724296
0.590066
0.45248
0.314023
0.175804
0.042934
1.20886
1.27439
0.988967
0.849368
0.723721
0.589807
0.452401
0.313989
0.175648
0.0417823
1.18249
1.28279
0.995994
0.849703
0.7232
0.589578
0.452331
0.313957
0.175476
0.0403187
1.1659
1.28971
1.00026
0.84963
0.722709
0.589377
0.452271
0.313929
0.175293
0.0384801
1.16027
1.29405
1.00254
0.849196
0.722235
0.589199
0.45222
0.31391
0.175138
0.035946
1.16064
1.29745
1.00312
0.848521
0.721841
0.589071
0.452186
0.313899
0.17522
0.0327406
0
0
0.866082
0.911935
0.742798
0.594782
0.453692
0.31429
0.175318
0.0327579
0
0
0.860817
0.906827
0.741846
0.594605
0.453655
0.314283
0.175231
0.0359625
0
0
0.835403
0.904618
0.740826
0.594365
0.4536
0.314276
0.175381
0.0384953
0
0
0.836739
0.900453
0.739635
0.594093
0.453536
0.314272
0.175555
0.0403325
1.1707
1.33482
0.768235
0.891533
0.738235
0.593781
0.453461
0.314266
0.175718
0.0417944
1.17125
1.37213
0.738401
0.878839
0.736586
0.59343
0.453376
0.314258
0.175864
0.0429443
1.17778
1.3884
0.740641
0.866357
0.73472
0.593049
0.453284
0.314247
0.175985
0.0438208
1.19486
1.38468
0.765774
0.85634
0.732776
0.592645
0.453185
0.314231
0.176078
0.0444536
1.22045
1.3646
0.804346
0.849726
0.730916
0.592228
0.453081
0.314211
0.176139
0.0448637
1.24813
1.33578
0.847298
0.846356
0.729259
0.591812
0.452974
0.314188
0.176167
0.0450648
1.27031
1.30641
0.887179
0.845363
0.727855
0.591409
0.452868
0.31416
0.17616
0.0450636
1.28091
1.28251
0.920034
0.845712
0.726692
0.591028
0.452763
0.314128
0.176118
0.0448601
1.27893
1.26813
0.945363
0.846651
0.725739
0.590676
0.452663
0.314094
0.176044
0.0444477
1.26438
1.26384
0.964419
0.847721
0.724955
0.590355
0.452568
0.314059
0.175938
0.0438127
1.23882
1.26702
0.97863
0.848675
0.724296
0.590066
0.45248
0.314023
0.175804
0.042934
1.20886
1.27439
0.988967
0.849368
0.723721
0.589807
0.452401
0.313989
0.175648
0.0417823
1.18249
1.28279
0.995994
0.849703
0.7232
0.589578
0.452331
0.313957
0.175476
0.0403187
1.1659
1.28971
1.00026
0.84963
0.722709
0.589377
0.452271
0.313929
0.175293
0.0384801
1.16027
1.29405
1.00254
0.849196
0.722235
0.589199
0.45222
0.31391
0.175138
0.035946
1.16064
1.29745
1.00312
0.848521
0.721841
0.589071
0.452186
0.313899
0.17522
0.0327406
0
0
0.864123
0.910619
0.742603
0.594774
0.453694
0.314276
0.175176
0.0318339
0
0
0.858847
0.905398
0.741647
0.594598
0.453656
0.314269
0.175088
0.0350241
0
0
0.833809
0.902934
0.740611
0.594357
0.453601
0.314261
0.175234
0.0375381
0
0
0.836083
0.898516
0.739394
0.594083
0.453536
0.314257
0.175404
0.0393583
1.17305
1.33115
0.768688
0.889506
0.737967
0.593767
0.453461
0.31425
0.175563
0.0408066
1.17268
1.36753
0.741251
0.876945
0.7363
0.593414
0.453376
0.314242
0.175705
0.0419457
1.1762
1.38326
0.74851
0.864825
0.73444
0.593029
0.453283
0.314229
0.175824
0.0428143
1.18747
1.37955
0.780741
0.85561
0.732541
0.592624
0.453183
0.314213
0.175914
0.0434414
1.2053
1.36053
0.823167
0.850248
0.730777
0.592211
0.453078
0.314193
0.175974
0.0438478
1.22441
1.3348
0.862765
0.847828
0.729243
0.591804
0.452972
0.314169
0.176001
0.0440469
1.23893
1.3098
0.895455
0.847063
0.727941
0.591409
0.452865
0.314141
0.175994
0.0440457
1.24558
1.29032
0.92257
0.847158
0.726834
0.591034
0.452761
0.31411
0.175953
0.0438441
1.2439
1.27859
0.945474
0.847684
0.725884
0.590682
0.45266
0.314076
0.17588
0.0434354
1.23374
1.27449
0.964225
0.848391
0.725066
0.590358
0.452564
0.314041
0.175776
0.042806
1.2159
1.27616
0.978597
0.849089
0.724365
0.590063
0.452476
0.314005
0.175645
0.0419354
1.19434
1.28102
0.988923
0.849609
0.723758
0.589801
0.452396
0.313971
0.175492
0.0407944
1.17558
1.28684
0.995883
0.849834
0.723214
0.589569
0.452326
0.31394
0.175324
0.0393444
1.16463
1.29169
1.00011
0.8497
0.72271
0.589368
0.452266
0.313913
0.175146
0.0375228
1.16188
1.29474
1.00237
0.849234
0.72223
0.589189
0.452215
0.313894
0.174994
0.0350075
1.16314
1.29762
1.00288
0.84854
0.721833
0.589061
0.452181
0.313884
0.175078
0.0318165
0
0
0.858223
0.908346
0.742281
0.594765
0.453697
0.314254
0.174926
0.0299134
0
0
0.852358
0.902852
0.741328
0.594592
0.45366
0.314246
0.174832
0.0330452
0
0
0.826754
0.899807
0.740268
0.594352
0.453605
0.314237
0.174967
0.0355029
0
0
0.831629
0.894792
0.738996
0.594074
0.45354
0.314231
0.175126
0.0372808
1.17979
1.32881
0.768393
0.885553
0.737514
0.593753
0.453464
0.314224
0.175275
0.038698
1.17814
1.36166
0.752442
0.873408
0.735824
0.593394
0.453377
0.314213
0.175409
0.0398145
1.17774
1.37286
0.774144
0.862906
0.73402
0.593008
0.453283
0.3142
0.175521
0.0406667
1.18079
1.36721
0.811155
0.855795
0.732259
0.592606
0.453182
0.314183
0.175608
0.0412825
1.18592
1.35147
0.846904
0.851799
0.730662
0.592199
0.453076
0.314162
0.175665
0.041682
1.19104
1.33314
0.878063
0.849868
0.729264
0.591796
0.452969
0.314137
0.17569
0.0418779
1.1947
1.31689
0.905342
0.849084
0.728043
0.591405
0.452861
0.314109
0.175683
0.0418767
1.19577
1.30444
0.928898
0.848921
0.726969
0.59103
0.452755
0.314077
0.175644
0.0416783
1.19419
1.29602
0.948814
0.849086
0.726022
0.590678
0.452653
0.314044
0.175573
0.0412764
1.18992
1.29143
0.965332
0.849395
0.725184
0.59035
0.452557
0.314009
0.175473
0.0406583
1.18336
1.29022
0.978645
0.849716
0.724443
0.590051
0.452467
0.313974
0.175348
0.039804
1.17599
1.29145
0.988725
0.849943
0.723786
0.589782
0.452386
0.31394
0.175203
0.0386856
1.1697
1.29344
0.995629
0.849981
0.723205
0.589546
0.452315
0.31391
0.175045
0.0372666
1.16667
1.29485
0.999814
0.849754
0.722683
0.589343
0.452256
0.313885
0.174878
0.0354873
1.1676
1.2959
1.00208
0.849246
0.722195
0.589165
0.452205
0.313868
0.174737
0.0330283
1.17009
1.29798
1.00248
0.848531
0.721798
0.589038
0.452171
0.313859
0.174827
0.0298958
0
0
0.8479
0.906422
0.741952
0.594768
0.453703
0.314234
0.174649
0.0269005
0
0
0.842623
0.900232
0.741066
0.594609
0.453668
0.314225
0.174544
0.0297655
0
0
0.813208
0.896354
0.740025
0.594384
0.453616
0.314216
0.174648
0.0320346
0
0
0.815988
0.890001
0.738708
0.594105
0.453552
0.314207
0.174781
0.0337239
1.19272
1.33956
0.774199
0.880509
0.737183
0.593781
0.453474
0.314198
0.174911
0.0350908
1.19085
1.35651
0.78063
0.870092
0.735512
0.593419
0.453386
0.314186
0.175033
0.0361741
1.18718
1.35717
0.806543
0.862281
0.733822
0.593031
0.45329
0.314171
0.175137
0.0370047
1.18223
1.35054
0.835618
0.857286
0.732218
0.592626
0.453186
0.314153
0.175218
0.0376068
1.17671
1.34184
0.864301
0.854066
0.730731
0.592214
0.453079
0.314131
0.175271
0.0379981
1.1714
1.33247
0.891242
0.852015
0.729369
0.591805
0.452968
0.314105
0.175295
0.0381902
1.16732
1.32335
0.915095
0.850832
0.728137
0.591405
0.452858
0.314076
0.175288
0.0381889
1.16456
1.31535
0.935656
0.850244
0.727034
0.591022
0.452749
0.314044
0.175249
0.0379943
1.16311
1.30903
0.953113
0.850031
0.726052
0.590661
0.452645
0.31401
0.175182
0.0376005
1.163
1.30453
0.967651
0.850019
0.72518
0.590325
0.452546
0.313975
0.175087
0.0369961
1.16459
1.30167
0.979418
0.850069
0.724406
0.590018
0.452454
0.313941
0.174971
0.0361632
1.16796
1.29998
0.988548
0.850071
0.723717
0.589742
0.452372
0.313908
0.174838
0.035078
1.1722
1.29885
0.995194
0.849949
0.723106
0.589499
0.452299
0.31388
0.174698
0.0337094
1.17663
1.2979
0.99951
0.849645
0.722567
0.589293
0.452239
0.313856
0.174557
0.0320186
1.1804
1.29746
1.00186
0.849137
0.722093
0.589123
0.452191
0.313841
0.174447
0.0297483
1.183
1.29861
1.00217
0.848452
0.72172
0.589004
0.45216
0.313833
0.174549
0.0268826
0
0
0.839236
0.907347
0.741776
0.594776
0.453707
0.314223
0.174488
0.0232502
0
0
0.836032
0.900784
0.741183
0.594649
0.453678
0.314218
0.174471
0.0249949
0
0
0.806456
0.897005
0.74025
0.594445
0.45363
0.314212
0.174525
0.0269026
0
0
0.79283
0.888282
0.739019
0.594171
0.453565
0.314203
0.174623
0.0285755
1.20458
1.34438
0.794263
0.879705
0.737514
0.593842
0.453486
0.314192
0.174734
0.0299315
1.20309
1.34548
0.808094
0.871501
0.735851
0.593471
0.453396
0.314179
0.174844
0.0310047
1.19808
1.34522
0.82696
0.864643
0.734142
0.593071
0.453297
0.314162
0.174942
0.031827
1.19024
1.34275
0.851507
0.859412
0.732471
0.592655
0.453192
0.314143
0.175019
0.0324229
1.18192
1.33804
0.876891
0.855767
0.730908
0.592232
0.453081
0.31412
0.17507
0.0328101
1.17468
1.33219
0.900495
0.853345
0.729484
0.591813
0.452968
0.314093
0.175093
0.0330002
1.1691
1.32605
0.921696
0.851826
0.728201
0.591403
0.452856
0.314063
0.175085
0.0329989
1.16549
1.32017
0.940314
0.850953
0.727055
0.591011
0.452745
0.314031
0.175048
0.0328062
1.1642
1.31495
0.95631
0.850506
0.726035
0.59064
0.452638
0.313997
0.174982
0.0324164
1.16528
1.31057
0.969734
0.850307
0.725131
0.590295
0.452536
0.313963
0.174891
0.0318181
1.16861
1.30709
0.980674
0.850207
0.724328
0.58998
0.452443
0.313929
0.174781
0.0309936
1.17404
1.30445
0.989241
0.850089
0.723615
0.589697
0.452359
0.313897
0.17466
0.0299183
1.18111
1.30255
0.995556
0.849866
0.722983
0.58945
0.452286
0.313869
0.174539
0.0285605
1.1883
1.30112
0.99977
0.849495
0.72243
0.589242
0.452225
0.313846
0.174434
0.0268862
1.19305
1.30015
1.00209
0.84902
0.721984
0.589083
0.45218
0.313829
0.174374
0.0249774
1.19455
1.2998
1.00244
0.848477
0.721675
0.588983
0.452153
0.31382
0.174387
0.023232

VECTORS velocity float
0 0 0
0 0 0
0.662796 -0.0277941 -0.00488805
0.616871 -0.00168913 0.0009742
0.63328 -0.000507302 0.000136968
0.638676 -0.000117951 3.42505e-05
0.639902 -2.57905e-05 8.1811e-06
0.640216 -7.93448e-06 -3.67083e-06
0.64044 1.43816e-05 -5.39373e-05
0.671585 -0.00210685 -0.00199018
0 0 0
0 0 0
-0.0713003 -0.0824451 -0.00407269
0.644769 -0.0104567 0.000794494
0.720671 -0.00204388 0.000240451
0.731395 -0.000428428 5.84122e-05
0.733367 -9.2084e-05 1.32186e-05
0.733831 -2.70413e-05 -2.57646e-06
0.734736 -2.62006e-05 -4.63225e-05
0.750234 -0.00437062 -0.00262935
0 0 0
0 0 0
0.688823 -0.14094 -0.0024416
0.692394 -0.021343 0.000591301
0.73567 -0.00399486 0.00021239
0.745514 -0.00081941 5.9188e-05
0.747563 -0.000175583 1.39428e-05
0.74805 -4.95873e-05 -2.68423e-06
0.748928 -0.000127371 -5.7782e-05
0.760418 -0.0042227 -0.00275744
0 0 0
0 0 0
-0.0572831 -0.202585 -0.000537483
0.666886 -0.0311815 -0.000190649
0.73717 -0.00590244 0.0001671
0.747851 -0.00121147 5.56653e-05
0.749855 -0.000259857 1.33466e-05
0.75032 -7.12998e-05 -3.12784e-06
0.751023 -0.000197234 -6.94878e-05
0.762027 -0.00356159 -0.00279651
0.351978 -0.0145674 -0.0309104
0.686098 0.00869745 -0.0242272
0.689909 -0.23529 0.0114144
0.696125 -0.0414491 0.00121068
0.739683 -0.00772943 0.000233286
0.748389 -0.00157817 5.39918e-05
0.750161 -0.000338332 1.21186e-05
0.750578 -9.02493e-05 -3.77321e-06
0.751122 -0.000227168 -7.53249e-05
0.762351 -0.00287915 -0.00281013
0.440884 -0.0388243 -0.0397411
0.864692 0.0189386 -0.0287288
0.852609 -0.232529 0.0171422
0.724762 -0.0482116 0.00256284
0.74238 -0.00923187 0.000287856
0.74877 -0.00189758 4.95613e-05
0.750252 -0.000407373 1.03509e-05
0.750607 -0.000105404 -4.53516e-06
0.751021 -0.000226673 -7.88199e-05
0.762508 -0.00225957 -0.002819
0.490779 -0.0524731 -0.0451495
0.90069 0.0194229 -0.0267954
0.892608 -0.218637 0.013663
0.740474 -0.0519904 0.00240251
0.744593 -0.0103786 0.000250411
0.749156 -0.00215968 3.94417e-05
0.750331 -0.000464773 8.07862e-06
0.750617 -0.000116288 -5.33136e-06
0.750928 -0.000203559 -8.09665e-05
0.762622 -0.00169889 -0.00282506
0.530907 -0.0557864 -0.049026
0.904396 0.0168381 -0.0239127
0.898021 -0.200137 0.00810621
0.75065 -0.0534647 0.00167795
0.74668 -0.0111753 0.000181158
0.749574 -0.00235792 2.75529e-05
0.750419 -0.000508883 5.56249e-06
0.750628 -0.00012276 -6.11609e-06
0.750861 -0.000164117 -8.22981e-05
0.762706 -0.00118353 -0.00282907
0.563535 -0.0509222 -0.0520088
0.901989 0.0141001 -0.0216938
0.896523 -0.179587 0.00424291
0.759256 -0.0530698 0.00100926
0.748841 -0.0116202 0.000108817
0.750025 -0.00248738 1.54822e-05
0.750513 -0.00053849 2.94279e-06
0.750644 -0.000124907 -6.86168e-06
0.750819 -0.000113507 -8.31078e-05
0.762761 -0.000699833 -0.00283152
0.58888 -0.03978 -0.0544733
0.898963 0.0123499 -0.0203157
0.89395 -0.158812 0.00181343