# vtk DataFile Version 2.0
TestTestTest
ASCII

DATASET STRUCTURED_GRID
DIMENSIONS 11 21 11
POINTS 2541 float
0 0 0
0.5 0 0
1 0 0
1.5 0 0
2 0 0
2.5 0 0
3 0 0
3.5 0 0
4 0 0
4.5 0 0
5 0 0
0 0.05 0
0.5 0.05 0
1 0.05 0
1.5 0.05 0
2 0.05 0
2.5 0.05 0
3 0.05 0
3.5 0.05 0
4 0.05 0
4.5 0.05 0
5 0.05 0
0 0.1 0
0.5 0.1 0
1 0.1 0
1.5 0.1 0
2 0.1 0
2.5 0.1 0
3 0.1 0
3.5 0.1 0
4 0.1 0
4.5 0.1 0
5 0.1 0
0 0.15 0
0.5 0.15 0
1 0.15 0
1.5 0.15 0
2 0.15 0
2.5 0.15 0
3 0.15 0
3.5 0.15 0
4 0.15 0
4.5 0.15 0
5 0.15 0
0 0.2 0
0.5 0.2 0
1 0.2 0
1.5 0.2 0
2 0.2 0
2.5 0.2 0
3 0.2 0
3.5 0.2 0
4 0.2 0
4.5 0.2 0
5 0.2 0
0 0.25 0
0.5 0.25 0
1 0.25 0
1.5 0.25 0
2 0.25 0
2.5 0.25 0
3 0.25 0
3.5 0.25 0
4 0.25 0
4.5 0.25 0
5 0.25 0
0 0.3 0
0.5 0.3 0
1 0.3 0
1.5 0.3 0
2 0.3 0
2.5 0.3 0
3 0.3 0
3.5 0.3 0
4 0.3 0
4.5 0.3 0
5 0.3 0
0 0.35 0
0.5 0.35 0
1 0.35 0
1.5 0.35 0
2 0.35 0
2.5 0.35 0
3 0.35 0
3.5 0.35 0
4 0.35 0
4.5 0.35 0
5 0.35 0
0 0.4 0
0.5 0.4 0
1 0.4 0
1.5 0.4 0
2 0.4 0
2.5 0.4 0
3 0.4 0
3.5 0.4 0
4 0.4 0
4.5 0.4 0
5 0.4 0
0 0.45 0
0.5 0.45 0
1 0.45 0
1.5 0.45 0
2 0.45 0
2.5 0.45 0
3 0.45 0
3.5 0.45 0
4 0.45 0
4.5 0.45 0
5 0.45 0
0 0.5 0
0.5 0.5 0
1 0.5 0
1.5 0.5 0
2 0.5 0
2.5 0.5 0
3 0.5 0
3.5 0.5 0
4 0.5 0
4.5 0.5 0
5 0.5 0
0 0.55 0
0.5 0.55 0
1 0.55 0
1.5 0.55 0
2 0.55 0
2.5 0.55 0
3 0.55 0
3.5 0.55 0
4 0.55 0
4.5 0.55 0
5 0.55 0
0 0.6 0
0.5 0.6 0
1 0.6 0
1.5 0.6 0
2 0.6 0
2.5 0.6 0
3 0.6 0
3.5 0.6 0
4 0.6 0
4.5 0.6 0
5 0.6 0
0 0.65 0
0.5 0.65 0
1 0.65 0
1.5 0.65 0
2 0.65 0
2.5 0.65 0
3 0.65 0
3.5 0.65 0
4 0.65 0
4.5 0.65 0
5 0.65 0
0 0.7 0
0.5 0.7 0
1 0.7 0
1.5 0.7 0
2 0.7 0
2.5 0.7 0
3 0.7 0
3.5 0.7 0
4 0.7 0
4.5 0.7 0
5 0.7 0
0 0.75 0
0.5 0.75 0
1 0.75 0
1.5 0.75 0
2 0.75 0
2.5 0.75 0
3 0.75 0
3.5 0.75 0
4 0.75 0
4.5 0.75 0
5 0.75 0
0 0.8 0
0.5 0.8 0
1 0.8 0
1.5 0.8 0
2 0.8 0
2.5 0.8 0
3 0.8 0
3.5 0.8 0
4 0.8 0
4.5 0.8 0
5 0.8 0
0 0.85 0
0.5 0.85 0
1 0.85 0
1.5 0.85 0
2 0.85 0
2.5 0.85 0
3 0.85 0
3.5 0.85 0
4 0.85 0
4.5 0.85 0
5 0.85 0
0 0.9 0
0.5 0.9 0
1 0.9 0
1.5 0.9 0
2 0.9 0
2.5 0.9 0
3 0.9 0
3.5 0.9 0
4 0.9 0
4.5 0.9 0
5 0.9 0
0 0.95 0
0.5 0.95 0
1 0.95 0
1.5 0.95 0
2 0.95 0
2.5 0.95 0
3 0.95 0
3.5 0.95 0
4 0.95 0
4.5 0.95 0
5 0.95 0
0 1 0
0.5 1 0
1 1 0
1.5 1 0
2 1 0
2.5 1 0
3 1 0
3.5 1 0
4 1 0
4.5 1 0
5 1 0
0 0 0.1
0.5 0 0.1
1 0 0.1
1.5 0 0.1
2 0 0.1
2.5 0 0.1
3 0 0.1
3.5 0 0.1
4 0 0.1
4.5 0 0.1
5 0 0.1
0 0.05 0.1
0.5 0.05 0.1
1 0.05 0.1
1.5 0.05 0.1
2 0.05 0.1
2.5 0.05 0.1
3 0.05 0.1
3.5 0.05 0.1
4 0.05 0.1
4.5 0.05 0.1
5 0.05 0.1
0 0.1 0.1
0.5 0.1 0.1
1 0.1 0.1
1.5 0.1 0.1
2 0.1 0.1
2.5 0.1 0.1
3 0.1 0.1
3.5 0.1 0.1
4 0.1 0.1
4.5 0.1 0.1
5 0.1 0.1
0 0.15 0.1
0.5 0.15 0.1
1 0.15 0.1
1.5 0.15 0.1
2 0.15 0.1
2.5 0.15 0.1
3 0.15 0.1
3.5 0.15 0.1
4 0.15 0.1
4.5 0.15 0.1
5 0.15 0.1
0 0.2 0.1
0.5 0.2 0.1
1 0.2 0.1
1.5 0.2 0.1
2 0.2 0.1
2.5 0.2 0.1
3 0.2 0.1
3.5 0.2 0.1
4 0.2 0.1
4.5 0.2 0.1
5 0.2 0.1
0 0.25 0.1
0.5 0.25 0.1
1 0.25 0.1
1.5 0.25 0.1
2 0.25 0.1
2.5 0.25 0.1
3 0.25 0.1
3.5 0.25 0.1
4 0.25 0.1
4.5 0.25 0.1
5 0.25 0.1
0 0.3 0.1
0.5 0.3 0.1
1 0.3 0.1
1.5 0.3 0.1
2 0.3 0.1
2.5 0.3 0.1
3 0.3 0.1
3.5 0.3 0.1
4 0.3 0.1
4.5 0.3 0.1
5 0.3 0.1
0 0.35 0.1
0.5 0.35 0.1
1 0.35 0.1
1.5 0.35 0.1
2 0.35 0.1
2.5 0.35 0.1
3 0.35 0.1
3.5 0.35 0.1
4 0.35 0.1
4.5 0.35 0.1
5 0.35 0.1
0 0.4 0.1
0.5 0.4 0.1
1 0.4 0.1
1.5 0.4 0.1
2 0.4 0.1
2.5 0.4 0.1
3 0.4 0.1
3.5 0.4 0.1
4 0.4 0.1
4.5 0.4 0.1
5 0.4 0.1
0 0.45 0.1
0.5 0.45 0.1
1 0.45 0.1
1.5 0.45 0.1
2 0.45 0.1
2.5 0.45 0.1
3 0.45 0.1
3.5 0.45 0.1
4 0.45 0.1
4.5 0.45 0.1
5 0.45 0.1
0 0.5 0.1
0.5 0.5 0.1
1 0.5 0.1
1.5 0.5 0.1
2 0.5 0.1
2.5 0.5 0.1
3 0.5 0.1
3.5 0.5 0.1
4 0.5 0.1
4.5 0.5 0.1
5 0.5 0.1
0 0.55 0.1
0.5 0.55 0.1
1 0.55 0.1
1.5 0.55 0.1
2 0.55 0.1
2.5 0.55 0.1
3 0.55 0.1
3.5 0.55 0.1
4 0.55 0.1
4.5 0.55 0.1
5 0.55 0.1
0 0.6 0.1
0.5 0.6 0.1
1 0.6 0.1
1.5 0.6 0.1
2 0.6 0.1
2.5 0.6 0.1
3 0.6 0.1
3.5 0.6 0.1
4 0.6 0.1
4.5 0.6 0.1
5 0.6 0.1
0 0.65 0.1
0.5 0.65 0.1
1 0.65 0.1
1.5 0.65 0.1
2 0.65 0.1
2.5 0.65 0.1
3 0.65 0.1
3.5 0.65 0.1
4 0.65 0.1
4.5 0.65 0.1
5 0.65 0.1
0 0.7 0.1
0.5 0.7 0.1
1 0.7 0.1
1.5 0.7 0.1
2 0.7 0.1
2.5 0.7 0.1
3 0.7 0.1
3.5 0.7 0.1
4 0.7 0.1
4.5 0.7 0.1
5 0.7 0.1
0 0.75 0.1
0.5 0.75 0.1
1 0.75 0.1
1.5 0.75 0.1
2 0.75 0.1
2.5 0.75 0.1
3 0.75 0.1
3.5 0.75 0.1
4 0.75 0.1
4.5 0.75 0.1
5 0.75 0.1
0 0.8 0.1
0.5 0.8 0.1
1 0.8 0.1
1.5 0.8 0.1
2 0.8 0.1
2.5 0.8 0.1
3 0.8 0.1
3.5 0.8 0.1
4 0.8 0.1
4.5 0.8 0.1
5 0.8 0.1
0 0.85 0.1
0.5 0.85 0.1
1 0.85 0.1
1.5 0.85 0.1
2 0.85 0.1
2.5 0.85 0.1
3 0.85 0.1
3.5 0.85 0.1
4 0.85 0.1
4.5 0.85 0.1
5 0.85 0.1
0 0.9 0.1
0.5 0.9 0.1
1 0.9 0.1
1.5 0.9 0.1
2 0.9 0.1
2.5 0.9 0.1
3 0.9 0.1
3.5 0.9 0.1
4 0.9 0.1
4.5 0.9 0.1
5 0.9 0.1
0 0.95 0.1
0.5 0.95 0.1
1 0.95 0.1
1.5 0.95 0.1
2 0.95 0.1
2.5 0.95 0.1
3 0.95 0.1
3.5 0.95 0.1
4 0.95 0.1
4.5 0.95 0.1
5 0.95 0.1
0 1 0.1
0.5 1 0.1
1 1 0.1
1.5 1 0.1
2 1 0.1
2.5 1 0.1
3 1 0.1
3.5 1 0.1
4 1 0.1
4.5 1 0.1
5 1 0.1
0 0 0.2
0.5 0 0.2
1 0 0.2
1.5 0 0.2
2 0 0.2
2.5 0 0.2
3 0 0.2
3.5 0 0.2
4 0 0.2
4.5 0 0.2
5 0 0.2
0 0.05 0.2
0.5 0.05 0.2
1 0.05 0.2
1.5 0.05 0.2
2 0.05 0.2
2.5 0.05 0.2
3 0.05 0.2
3.5 0.05 0.2
4 0.05 0.2
4.5 0.05 0.2
5 0.05 0.2
0 0.1 0.2
0.5 0.1 0.2
1 0.1 0.2
1.5 0.1 0.2
2 0.1 0.2
2.5 0.1 0.2
3 0.1 0.2
3.5 0.1 0.2
4 0.1 0.2
4.5 0.1 0.2
5 0.1 0.2
0 0.15 0.2
0.5 0.15 0.2
1 0.15 0.2
1.5 0.15 0.2
2 0.15 0.2
2.5 0.15 0.2
3 0.15 0.2
3.5 0.15 0.2
4 0.15 0.2
4.5 0.15 0.2
5 0.15 0.2
0 0.2 0.2
0.5 0.2 0.2
1 0.2 0.2
1.5 0.2 0.2
2 0.2 0.2
2.5 0.2 0.2
3 0.2 0.2
3.5 0.2 0.2
4 0.2 0.2
4.5 0.2 0.2
5 0.2 0.2
0 0.25 0.2
0.5 0.25 0.2
1 0.25 0.2
1.5 0.25 0.2
2 0.25 0.2
2.5 0.25 0.2
3 0.25 0.2
3.5 0.25 0.2
4 0.25 0.2
4.5 0.25 0.2
5 0.25 0.2
0 0.3 0.2
0.5 0.3 0.2
1 0.3 0.2
1.5 0.3 0.2
2 0.3 0.2
2.5 0.3 0.2
3 0.3 0.2
3.5 0.3 0.2
4 0.3 0.2
4.5 0.3 0.2
5 0.3 0.2
0 0.35 0.2
0.5 0.35 0.2
1 0.35 0.2
1.5 0.35 0.2
2 0.35 0.2
2.5 0.35 0.2
3 0.35 0.2
3.5 0.35 0.2
4 0.35 0.2
4.5 0.35 0.2
5 0.35 0.2
0 0.4 0.2
0.5 0.4 0.2
1 0.4 0.2
1.5 0.4 0.2
2 0.4 0.2
2.5 0.4 0.2
3 0.4 0.2
3.5 0.4 0.2
4 0.4 0.2
4.5 0.4 0.2
5 0.4 0.2
0 0.45 0.2
0.5 0.45 0.2
1 0.45 0.2
1.5 0.45 0.2
2 0.45 0.2
2.5 0.45 0.2
3 0.45 0.2
3.5 0.45 0.2
4 0.45 0.2
4.5 0.45 0.2
5 0.45 0.2
0 0.5 0.2
0.5 0.5 0.2
1 0.5 0.2
1.5 0.5 0.2
2 0.5 0.2
2.5 0.5 0.2
3 0.5 0.2
3.5 0.5 0.2
4 0.5 0.2
4.5 0.5 0.2
5 0.5 0.2
0 0.55 0.2
0.5 0.55 0.2
1 0.55 0.2
1.5 0.55 0.2
2 0.55 0.2
2.5 0.55 0.2
3 0.55 0.2
3.5 0.55 0.2
4 0.55 0.2
4.5 0.55 0.2
5 0.55 0.2
0 0.6 0.2
0.5 0.6 0.2
1 0.6 0.2
1.5 0.6 0.2
2 0.6 0.2
2.5 0.6 0.2
3 0.6 0.2
3.5 0.6 0.2
4 0.6 0.2
4.5 0.6 0.2
5 0.6 0.2
0 0.65 0.2
0.5 0.65 0.2
1 0.65 0.2
1.5 0.65 0.2
2 0.65 0.2
2.5 0.65 0.2
3 0.65 0.2
3.5 0.65 0.2
4 0.65 0.2
4.5 0.65 0.2
5 0.65 0.2
0 0.7 0.2
0.5 0.7 0.2
1 0.7 0.2
1.5 0.7 0.2
2 0.7 0.2
2.5 0.7 0.2
3 0.7 0.2
3.5 0.7 0.2
4 0.7 0.2
4.5 0.7 0.2
5 0.7 0.2
0 0.75 0.2
0.5 0.75 0.2
1 0.75 0.2
1.5 0.75 0.2
2 0.75 0.2
2.5 0.75 0.2
3 0.75 0.2
3.5 0.75 0.2
4 0.75 0.2
4.5 0.75 0.2
5 0.75 0.2
0 0.8 0.2
0.5 0.8 0.2
1 0.8 0.2
1.5 0.8 0.2
2 0.8 0.2
2.5 0.8 0.2
3 0.8 0.2
3.5 0.8 0.2
4 0.8 0.2
4.5 0.8 0.2
5 0.8 0.2
0 0.85 0.2
0.5 0.85 0.2
1 0.85 0.2
1.5 0.85 0.2
2 0.85 0.2
2.5 0.85 0.2
3 0.85 0.2
3.5 0.85 0.2
4 0.85 0.2
4.5 0.85 0.2
5 0.85 0.2
0 0.9 0.2
0.5 0.9 0.2
1 0.9 0.2
1.5 0.9 0.2
2 0.9 0.2
2.5 0.9 0.2
3 0.9 0.2
3.5 0.9 0.2
4 0.9 0.2
4.5 0.9 0.2
5 0.9 0.2
0 0.95 0.2
0.5 0.95 0.2
1 0.95 0.2
1.5 0.95 0.2
2 0.95 0.2
2.5 0.95 0.2
3 0.95 0.2
3.5 0.95 0.2
4 0.95 0.2
4.5 0.95 0.2
5 0.95 0.2
0 1 0.2
0.5 1 0.2
1 1 0.2
1.5 1 0.2
2 1 0.2
2.5 1 0.2
3 1 0.2
3.5 1 0.2
4 1 0.2
4.5 1 0.2
5 1 0.2
0 0 0.3
0.5 0 0.3
1 0 0.3
1.5 0 0.3
2 0 0.3
2.5 0 0.3
3 0 0.3
3.5 0 0.3
4 0 0.3
4.5 0 0.3
5 0 0.3
0 0.05 0.3
0.5 0.05 0.3
1 0.05 0.3
1.5 0.05 0.3
2 0.05 0.3
2.5 0.05 0.3
3 0.05 0.3
3.5 0.05 0.3
4 0.05 0.3
4.5 0.05 0.3
5 0.05 0.3
0 0.1 0.3
0.5 0.1 0.3
1 0.1 0.3
1.5 0.1 0.3
2 0.1 0.3
2.5 0.1 0.3
3 0.1 0.3
3.5 0.1 0.3
4 0.1 0.3
4.5 0.1 0.3
5 0.1 0.3
0 0.15 0.3
0.5 0.15 0.3
1 0.15 0.3
1.5 0.15 0.3
2 0.15 0.3
2.5 0.15 0.3
3 0.15 0.3
3.5 0.15 0.3
4 0.15 0.3
4.5 0.15 0.3
5 0.15 0.3
0 0.2 0.3
0.5 0.2 0.3
1 0.2 0.3
1.5 0.2 0.3
2 0.2 0.3
2.5 0.2 0.3
3 0.2 0.3
3.5 0.2 0.3
4 0.2 0.3
4.5 0.2 0.3
5 0.2 0.3
0 0.25 0.3
0.5 0.25 0.3
1 0.25 0.3
1.5 0.25 0.3
2 0.25 0.3
2.5 0.25 0.3
3 0.25 0.3
3.5 0.25 0.3
4 0.25 0.3
4.5 0.25 0.3
5 0.25 0.3
0 0.3 0.3
0.5 0.3 0.3
1 0.3 0.3
1.5 0.3 0.3
2 0.3 0.3
2.5 0.3 0.3
3 0.3 0.3
3.5 0.3 0.3
4 0.3 0.3
4.5 0.3 0.3
5 0.3 0.3
0 0.35 0.3
0.5 0.35 0.3
1 0.35 0.3
1.5 0.35 0.3
2 0.35 0.3
2.5 0.35 0.3
3 0.35 0.3
3.5 0.35 0.3
4 0.35 0.3
4.5 0.35 0.3
5 0.35 0.3
0 0.4 0.3
0.5 0.4 0.3
1 0.4 0.3
1.5 0.4 0.3
2 0.4 0.3
2.5 0.4 0.3
3 0.4 0.3
3.5 0.4 0.3
4 0.4 0.3
4.5 0.4 0.3
5 0.4 0.3
0 0.45 0.3
0.5 0.45 0.3
1 0.45 0.3
1.5 0.45 0.3
2 0.45 0.3
2.5 0.45 0.3
3 0.45 0.3
3.5 0.45 0.3
4 0.45 0.3
4.5 0.45 0.3
5 0.45 0.3
0 0.5 0.3
0.5 0.5 0.3
1 0.5 0.3
1.5 0.5 0.3
2 0.5 0.3
2.5 0.5 0.3
3 0.5 0.3
3.5 0.5 0.3
4 0.5 0.3
4.5 0.5 0.3
5 0.5 0.3
0 0.55 0.3
0.5 0.55 0.3
1 0.55 0.3
1.5 0.55 0.3
2 0.55 0.3
2.5 0.55 0.3
3 0.55 0.3
3.5 0.55 0.3
4 0.55 0.3
4.5 0.55 0.3
5 0.55 0.3
0 0.6 0.3
0.5 0.6 0.3
1 0.6 0.3
1.5 0.6 0.3
2 0.6 0.3
2.5 0.6 0.3
3 0.6 0.3
3.5 0.6 0.3
4 0.6 0.3
4.5 0.6 0.3
5 0.6 0.3
0 0.65 0.3
0.5 0.65 0.3
1 0.65 0.3
1.5 0.65 0.3
2 0.65 0.3
2.5 0.65 0.3
3 0.65 0.3
3.5 0.65 0.3
4 0.65 0.3
4.5 0.65 0.3
5 0.65 0.3
0 0.7 0.3
0.5 0.7 0.3
1 0.7 0.3
1.5 0.7 0.3
2 0.7 0.3
2.5 0.7 0.3
3 0.7 0.3
3.5 0.7 0.3
4 0.7 0.3
4.5 0.7 0.3
5 0.7 0.3
0 0.75 0.3
0.5 0.75 0.3
1 0.75 0.3
1.5 0.75 0.3
2 0.75 0.3
2.5 0.75 0.3
3 0.75 0.3
3.5 0.75 0.3
4 0.75 0.3
4.5 0.75 0.3
5 0.75 0.3
0 0.8 0.3
0.5 0.8 0.3
1 0.8 0.3
1.5 0.8 0.3
2 0.8 0.3
2.5 0.8 0.3
3 0.8 0.3
3.5 0.8 0.3
4 0.8 0.3
4.5 0.8 0.3
5 0.8 0.3
0 0.85 0.3
0.5 0.85 0.3
1 0.85 0.3
1.5 0.85 0.3
2 0.85 0.3
2.5 0.85 0.3
3 0.85 0.3
3.5 0.85 0.3
4 0.85 0.3
4.5 0.85 0.3
5 0.85 0.3
0 0.9 0.3
0.5 0.9 0.3
1 0.9 0.3
1.5 0.9 0.3
2 0.9 0.3
2.5 0.9 0.3
3 0.9 0.3
3.5 0.9 0.3
4 0.9 0.3
4.5 0.9 0.3
5 0.9 0.3
0 0.95 0.3
0.5 0.95 0.3
1 0.95 0.3
1.5 0.95 0.3
2 0.95 0.3
2.5 0.95 0.3
3 0.95 0.3
3.5 0.95 0.3
4 0.95 0.3
4.5 0.95 0.3
5 0.95 0.3
0 1 0.3
0.5 1 0.3
1 1 0.3
1.5 1 0.3
2 1 0.3
2.5 1 0.3
3 1 0.3
3.5 1 0.3
4 1 0.3
4.5 1 0.3
5 1 0.3
0 0 0.4
[...]
CELL_DATA 2000
SCALARS pressure float 1
LOOKUP_TABLE default
0
0
0.875916
0.948481
0.775833
0.62286
0.475317
0.329205
0.182757
0.0237406
0
0
0.872985
0.941463
0.775214
0.62273
0.475287
0.3292
0.182755
0.0258124
0
0
0.840195
0.937348
0.774265
0.622529
0.475239
0.329193
0.18282
0.0279055
0
0
0.82655
0.928048
0.773066
0.622269
0.475177
0.329185
0.182924
0.0296921
1.3331
1.46657
0.829926
0.919143
0.77164
0.621962
0.475103
0.329176
0.183041
0.0311404
1.33084
1.46519
0.848263
0.911203
0.770102
0.62162
0.475018
0.329164
0.183156
0.0322889
1.32481
1.4613
0.871606
0.904966
0.768552
0.621254
0.474926
0.329149
0.183258
0.0331702
1.31573
1.45492
0.900065
0.900494
0.767063
0.620875
0.474828
0.329131
0.183339
0.0338096
1.30612
1.44691
0.928255
0.897572
0.76569
0.620492
0.474725
0.32911
0.183392
0.0342255
1.29773
1.43843
0.954073
0.895809
0.764452
0.620112
0.47462
0.329085
0.183417
0.0344298
1.29117
1.43021
0.977062
0.894886
0.763348
0.619744
0.474516
0.329057
0.183409
0.0344285
1.28679
1.42267
0.99709
0.894543
0.76237
0.619391
0.474413
0.329026
0.183371
0.0342216
1.28499
1.41606
1.01418
0.894562
0.761506
0.619059
0.474314
0.328993
0.183303
0.0338032
1.28582
1.4105
1.02843
0.894766
0.760743
0.618749
0.47422
0.32896
0.183209
0.0331613
1.28917
1.40599
1.04
0.89501
0.760066
0.618466
0.474134
0.328926
0.183095
0.0322778
1.29486
1.4025
1.04903
0.89518
0.759461
0.618212
0.474055
0.328895
0.182969
0.0311273
1.30243
1.39996
1.05569
0.895189
0.758919
0.617987
0.473987
0.328867
0.182842
0.0296772
1.31022
1.39822
1.06015
0.894985
0.758433
0.617796
0.473929
0.328844
0.18273
0.0278891
1.31558
1.39735
1.06262
0.894587
0.75802
0.617645
0.473885
0.328828
0.18266
0.0257948
1.31763
1.39727
1.06303
0.894044
0.757713
0.617545
0.473858
0.328818
0.182659
0.0237223
0
0
0.885245
0.946436
0.775859
0.622832
0.475309
0.329216
0.18293
0.0277134
0
0
0.880377
0.939998
0.774945
0.622663
0.475272
0.329208
0.182885
0.0309554
0
0
0.848731
0.935941
0.773959
0.62245
0.475222
0.3292
0.182998
0.0333031
0
0
0.853659
0.929202
0.772701
0.622189
0.47516
0.329193
0.183129
0.0351124
1.31935
1.46433
0.80654
0.919427
0.771274
0.621889
0.475088
0.329185
0.183261
0.0365785
1.31655
1.48103
0.816524
0.909239
0.769745
0.621557
0.475006
0.329174
0.183385
0.0377409
1.31149
1.47646
0.849359
0.902387
0.768237
0.621204
0.474916
0.329161
0.183492
0.0386325
1.3048
1.46498
0.883586
0.898456
0.766826
0.620839
0.474821
0.329145
0.183575
0.0392791
1.29731
1.45292
0.91626
0.896105
0.765535
0.62047
0.474721
0.329124
0.183631
0.0396995
1.29007
1.4412
0.945915
0.894797
0.764367
0.620104
0.47462
0.3291
0.183656
0.039906
1.28443
1.43039
0.971652
0.89424
0.763323
0.619749
0.474519
0.329073
0.183649
0.0399047
1.2806
1.42102
0.993611
0.894182
0.762397
0.619409
0.474419
0.329042
0.18361
0.0396957
1.27863
1.41336
1.01208
0.894419
0.761577
0.619088
0.474323
0.32901
0.18354
0.0392729
1.27857
1.40745
1.02732
0.894789
0.76085
0.61879
0.474232
0.328977
0.183444
0.038624
1.28072
1.4031
1.03956
0.895159
0.760204
0.618516
0.474148
0.328943
0.183325
0.0377302
1.2851
1.39989
1.04901
0.895426
0.759626
0.61827
0.474071
0.328911
0.18319
0.0365659
1.29052
1.3974
1.05587
0.895512
0.759104
0.618051
0.474004
0.328883
0.183049
0.035098
1.29605
1.39548
1.06034
0.895362
0.758635
0.617864
0.473948
0.328859
0.18291
0.0332872
1.30078
1.39462
1.06269
0.894924
0.758202
0.617705
0.473902
0.328842
0.182792
0.0309384
1.30417
1.39585
1.06294
0.894188
0.757814
0.61758
0.473868
0.328834
0.182832
0.0276955
0
0
0.896079
0.947367
0.776024
0.62281
0.4753
0.329237
0.183217
0.0308499
0
0
0.890584
0.941725
0.775069
0.622631
0.475261
0.329229
0.183185
0.0343184
0
0
0.863746
0.938623
0.774095
0.622411
0.47521
0.329223
0.183318
0.0368011
0
0
0.870598
0.933337
0.772898
0.622154
0.475149
0.329217
0.183467
0.0386858
1.3049
1.45566
0.800257
0.923895
0.771516
0.621859
0.475077
0.329211
0.183613
0.040198
1.30197
1.49035
0.784383
0.911917
0.769966
0.621531
0.474997
0.329202
0.183746
0.0413906
1.29979
1.4983
0.813179
0.902212
0.768352
0.621182
0.47491
0.32919
0.18386
0.0423021
1.30092
1.48694
0.858225
0.896428
0.766819
0.620821
0.474817
0.329175
0.183948
0.0429614
1.30399
1.46714
0.899156
0.893805
0.76546
0.620458
0.47472
0.329155
0.184006
0.0433894
1.30705
1.44701
0.933834
0.89288
0.764283
0.6201
0.474621
0.329132
0.184033
0.0435995
1.30888
1.42979
0.963454
0.892789
0.76326
0.619753
0.474523
0.329105
0.184026
0.0435983
1.3086
1.41638
0.988446
0.893145
0.762364
0.619422
0.474426
0.329076
0.183986
0.0433858
1.30648
1.40672
1.00922
0.893725
0.761578
0.61911
0.474332
0.329043
0.183914
0.0429554
1.30248
1.40052
1.02618
0.894375
0.760885
0.61882
0.474244
0.32901
0.183813
0.0422938
1.29672
1.39726
1.03968
0.894972
0.760269
0.618554
0.474161
0.328976
0.183688
0.0413802
1.29041
1.39603
1.04983
0.895422
0.759718
0.618313
0.474087
0.328944
0.183544
0.0401857
1.28527
1.39542
1.05681
0.895648
0.759224
0.618101
0.474021
0.328914
0.183389
0.0386718
1.28351
1.39457
1.06106
0.895572
0.758771
0.617916
0.473965
0.328889
0.183232
0.0367857
1.2859
1.39418
1.06323
0.895139
0.758334
0.617754
0.473917
0.32887
0.183093
0.0343018
1.28969
1.39589
1.06345
0.894367
0.757924
0.617622
0.473882
0.328861
0.18312
0.0308323
0
0
0.901891
0.949023
0.776227
0.622804
0.475295
0.329259
0.18347
0.0328376
0
0
0.896765
0.943668
0.775276
0.622623
0.475256
0.329252
0.183443
0.036354
0
0
0.87024
0.941154
0.774331
0.622404
0.475204
0.329246
0.183584
0.0388827
0
0
0.873932
0.936531
0.773187
0.622151
0.475144
0.329242
0.183742
0.0408039
1.29748
1.46107
0.799538
0.927366
0.771858
0.621861
0.475074
0.329237
0.183895
0.0423436
1.29552
1.49985
0.771546
0.914988
0.770333
0.621539
0.474995
0.329229
0.184034
0.0435566
1.29686
1.51335
0.785064
0.903715
0.768667
0.621192
0.474909
0.329218
0.184153
0.0444827
1.30598
1.50417
0.827129
0.895987
0.76701
0.62083
0.474817
0.329203
0.184244
0.0451521
1.32176
1.48024
0.877163
0.892234
0.765514
0.620464
0.474721
0.329185
0.184304
0.0455864
1.33905
1.45232
0.920459
0.891047
0.76424
0.620104
0.474624
0.329162
0.184332
0.0457994
1.3521
1.42674
0.955191
0.891082
0.763166
0.619756
0.474527
0.329136
0.184325
0.0457982
1.35767
1.40685
0.983643
0.891689
0.762253
0.619426
0.474431
0.329106
0.184284
0.0455828
1.35548
1.39426
1.00716
0.89256
0.761469
0.619116
0.474339
0.329074
0.18421
0.0451463
1.34538
1.38863
1.02602
0.893523
0.760794
0.618829
0.474252
0.329041
0.184106
0.0444746
1.32792
1.38803
1.04033
0.894437
0.760215
0.618569
0.47417
0.329007
0.183977
0.0435464
1.30699
1.38985
1.0506
0.895155
0.759711
0.618335
0.474097
0.328974
0.183827
0.0423316
1.2892
1.39215
1.05752
0.89556
0.759252
0.618126
0.474032
0.328943
0.183665
0.0407902
1.27978
1.39359
1.06169
0.89558
0.758818
0.617944
0.473976
0.328917
0.183499
0.0388676
1.27898
1.3943
1.06378
0.89519
0.758389
0.617782
0.473928
0.328897
0.183352
0.0363377
1.28197
1.39645
1.06401
0.894432
0.757981
0.61765
0.473892
0.328887
0.183375
0.0328203
0
0
0.90361
0.950042
0.776361
0.622805
0.475293
0.329273
0.183614
0.0337915
0
0
0.898299
0.944796
0.775415
0.622624
0.475254
0.329266
0.183588
0.0373197
0
0
0.871052
0.942522
0.774486
0.622405
0.475202
0.329261
0.183731
0.0398639
0
0
0.873494
0.938167
0.773367
0.622154
0.475142
0.329257
0.183892
0.0417994
1.29489
1.46656
0.79782
0.929129
0.772064
0.621867
0.475073
0.329252
0.184048
0.0433511
1.29367
1.5065
0.767588
0.916656
0.770558
0.621548
0.474994
0.329245
0.184191
0.0445736
1.2978
1.52101
0.776321
0.905071
0.768894
0.621205
0.474909
0.329235
0.184311
0.0455069
1.31258
1.51208
0.811696
0.89665
0.767203
0.620844
0.474818
0.32922
0.184404
0.0461814
1.33612
1.48666
0.859539
0.891864
0.765624
0.620476
0.474723
0.329202
0.184466
0.0466189
1.36204
1.455
0.907676
0.889926
0.764245
0.620109
0.474626
0.32918
0.184494
0.0468336
1.38293
1.42483
0.949145
0.889748
0.763086
0.619755
0.474529
0.329154
0.184487
0.0468325
1.3927
1.40076
0.982074
0.890487
0.762127
0.619421
0.474434
0.329124
0.184445
0.0466154
1.39032
1.38599
1.00733
0.891643
0.761343
0.619111
0.474342
0.329092
0.184371
0.0461756
1.37569
1.38059
1.02644
0.892905
0.760702
0.618829
0.474255
0.329058
0.184265
0.0454989
1.3502
1.38157
1.04068
0.894058
0.760161
0.618573
0.474175
0.329024
0.184133
0.0445636
1.32063
1.38565
1.05096
0.894944
0.759686
0.618342
0.474102
0.328991
0.183981
0.0433392
1.29518
1.39001
1.05789
0.895458
0.759248
0.618137
0.474037
0.32896
0.183815
0.0417859
1.28024
1.39294
1.06204
0.895541
0.758828
0.617956
0.473981
0.328934
0.183647
0.0398489
1.27685
1.39443
1.06409
0.895182
0.758406
0.617795
0.473934
0.328913
0.183497
0.0373035
1.27918
1.39691
1.06434
0.894439
0.758
0.617663
0.473898
0.328902
0.183519
0.0337744
0
0
0.90361
0.950042
0.776361
0.622805
0.475293
0.329273
0.183614
0.0337915
0
0
0.898299
0.944796
0.775415
0.622624
0.475254
0.329266
0.183588
0.0373197
0
0
0.871052
0.942522
0.774486
0.622405
0.475202
0.329261
0.183731
0.0398639
0
0
0.873494
0.938167
0.773367
0.622154
0.475142
0.329257
0.183892
0.0417994
1.29489
1.46656
0.79782
0.929129
0.772064
0.621867
0.475073
0.329252
0.184048
0.0433511
1.29367
1.5065
0.767588
0.916656
0.770558
0.621548
0.474994
0.329245
0.184191
0.0445736
1.2978
1.52101
0.776321
0.905071
0.768894
0.621205
0.474909
0.329235
0.184311
0.0455069
1.31258
1.51208
0.811696
0.89665
0.767203
0.620844
0.474818
0.32922
0.184404
0.0461814
1.33612
1.48666
0.859539
0.891864
0.765624
0.620476
0.474723
0.329202
0.184466
0.0466189
1.36204
1.455
0.907676
0.889926
0.764245
0.620109
0.474626
0.32918
0.184494
0.0468336
1.38293
1.42483
0.949145
0.889748
0.763086
0.619755
0.474529
0.329154
0.184487
0.0468325
1.3927
1.40076
0.982074
0.890487
0.762127
0.619421
0.474434
0.329124
0.184445
0.0466154
1.39032
1.38599
1.00733
0.891643
0.761343
0.619111
0.474342
0.329092
0.184371
0.0461756
1.37569
1.38059
1.02644
0.892905
0.760702
0.618829
0.474255
0.329058
0.184265
0.0454989
1.3502
1.38157
1.04068
0.894058
0.760161
0.618573
0.474175
0.329024
0.184133
0.0445636
1.32063
1.38565
1.05096
0.894944
0.759686
0.618342
0.474102
0.328991
0.183981
0.0433392
1.29518
1.39001
1.05789
0.895458
0.759248
0.618137
0.474037
0.32896
0.183815
0.0417859
1.28024
1.39294
1.06204
0.895541
0.758828
0.617956
0.473981
0.328934
0.183647
0.0398489
1.27685
1.39443
1.06409
0.895182
0.758406
0.617795
0.473934
0.328913
0.183497
0.0373035
1.27918
1.39691
1.06434
0.894439
0.758
0.617663
0.473898
0.328902
0.183519
0.0337744
0
0
0.901891
0.949023
0.776227
0.622804
0.475295
0.329259
0.18347
0.0328376
0
0
0.896765
0.943668
0.775276
0.622623
0.475256
0.329252
0.183443
0.036354
0
0
0.87024
0.941154
0.774331
0.622404
0.475204
0.329246
0.183584
0.0388827
0
0
0.873932
0.936531
0.773187
0.622151
0.475144
0.329242
0.183742
0.0408039
1.29748
1.46107
0.799538
0.927366
0.771858
0.621861
0.475074
0.329237
0.183895
0.0423436
1.29552
1.49985
0.771546
0.914988
0.770333
0.621539
0.474995
0.329229
0.184034
0.0435566
1.29686
1.51335
0.785064
0.903715
0.768667
0.621192
0.474909
0.329218
0.184153
0.0444827
1.30598
1.50417
0.827129
0.895987
0.76701
0.62083
0.474817
0.329203
0.184244
0.0451521
1.32176
1.48024
0.877163
0.892234
0.765514
0.620464
0.474721
0.329185
0.184304
0.0455864
1.33905
1.45232
0.920459
0.891047
0.76424
0.620104
0.474624
0.329162
0.184332
0.0457994
1.3521
1.42674
0.955191
0.891082
0.763166
0.619756
0.474527
0.329136
0.184325
0.0457982
1.35767
1.40685
0.983643
0.891689
0.762253
0.619426
0.474431
0.329106
0.184284
0.0455828
1.35548
1.39426
1.00716
0.89256
0.761469
0.619116
0.474339
0.329074
0.18421
0.0451463
1.34538
1.38863
1.02602
0.893523
0.760794
0.618829
0.474252
0.329041
0.184106
0.0444746
1.32792
1.38803
1.04033
0.894437
0.760215
0.618569
0.47417
0.329007
0.183977
0.0435464
1.30699
1.38985
1.0506
0.895155
0.759711
0.618335
0.474097
0.328974
0.183827
0.0423316
1.2892
1.39215
1.05752
0.89556
0.759252
0.618126
0.474032
0.328943
0.183665
0.0407902
1.27978
1.39359
1.06169
0.89558
0.758818
0.617944
0.473976
0.328917
0.183499
0.0388676
1.27898
1.3943
1.06378
0.89519
0.758389
0.617782
0.473928
0.328897
0.183352
0.0363377
1.28197
1.39645
1.06401
0.894432
0.757981
0.61765
0.473892
0.328887
0.183375
0.0328203
0
0
0.896079
0.947367
0.776024
0.62281
0.4753
0.329237
0.183217
0.0308499
0
0
0.890584
0.941725
0.775069
0.622631
0.475261
0.329229
0.183185
0.0343184
0
0
0.863746
0.938623
0.774095
0.622411
0.47521
0.329223
0.183318
0.0368011
0
0
0.870598
0.933337
0.772898
0.622154
0.475149
0.329217
0.183467
0.0386858
1.3049
1.45566
0.800257
0.923895
0.771516
0.621859
0.475077
0.329211
0.183613
0.040198
1.30197
1.49035
0.784383
0.911917
0.769966
0.621531
0.474997
0.329202
0.183746
0.0413906
1.29979
1.4983
0.813179
0.902212
0.768352
0.621182
0.47491
0.32919
0.18386
0.0423021
1.30092
1.48694
0.858225
0.896428
0.766819
0.620821
0.474817
0.329175
0.183948
0.0429614
1.30399
1.46714
0.899156
0.893805
0.76546
0.620458
0.47472
0.329155
0.184006
0.0433894
1.30705
1.44701
0.933834
0.89288
0.764283
0.6201
0.474621
0.329132
0.184033
0.0435995
1.30888
1.42979
0.963454
0.892789
0.76326
0.619753
0.474523
0.329105
0.184026
0.0435983
1.3086
1.41638
0.988446
0.893145
0.762364
0.619422
0.474426
0.329076
0.183986
0.0433858
1.30648
1.40672
1.00922
0.893725
0.761578
0.61911
0.474332
0.329043
0.183914
0.0429554
1.30248
1.40052
1.02618
0.894375
0.760885
0.61882
0.474244
0.32901
0.183813
0.0422938
1.29672
1.39726
1.03968
0.894972
0.760269
0.618554
0.474161
0.328976
0.183688
0.0413802
1.29041
1.39603
1.04983
0.895422
0.759718
0.618313
0.474087
0.328944
0.183544
0.0401857
1.28527
1.39542
1.05681
0.895648
0.759224
0.618101
0.474021
0.328914
0.183389
0.0386718
1.28351
1.39457
1.06106
0.895572
0.758771
0.617916
0.473965
0.328889
0.183232
0.0367857
1.2859
1.39418
1.06323
0.895139
0.758334
0.617754
0.473917
0.32887
0.183093
0.0343018
1.28969
1.39589
1.06345
0.894367
0.757924
0.617622
0.473882
0.328861
0.18312
0.0308323
0
0
0.885245
0.946436
0.775859
0.622832
0.475309
0.329216
0.18293
0.0277134
0
0
0.880377
0.939998
0.774945
0.622663
0.475272
0.329208
0.182885
0.0309554
0
0
0.848731
0.935941
0.773959
0.62245
0.475222
0.3292
0.182998
0.0333031
0
0
0.853659
0.929202
0.772701
0.622189
0.47516
0.329193
0.183129
0.0351124
1.31935
1.46433
0.80654
0.919427
0.771274
0.621889
0.475088
0.329185
0.183261
0.0365785
1.31655
1.48103
0.816524
0.909239
0.769745
0.621557
0.475006
0.329174
0.183385
0.0377409
1.31149
1.47646
0.849359
0.902387
0.768237
0.621204
0.474916
0.329161
0.183492
0.0386325
1.3048
1.46498
0.883586
0.898456
0.766826
0.620839
0.474821
0.329145
0.183575
0.0392791
1.29731
1.45292
0.91626
0.896105
0.765535
0.62047
0.474721
0.329124
0.183631
0.0396995
1.29007
1.4412
0.945915
0.894797
0.764367
0.620104
0.47462
0.3291
0.183656
0.039906
1.28443
1.43039
0.971652
0.89424
0.763323
0.619749
0.474519
0.329073
0.183649
0.0399047
1.2806
1.42102
0.993611
0.894182
0.762397
0.619409
0.474419
0.329042
0.18361
0.0396957
1.27863
1.41336
1.01208
0.894419
0.761577
0.619088
0.474323
0.32901
0.18354
0.0392729
1.27857
1.40745
1.02732
0.894789
0.76085
0.61879
0.474232
0.328977
0.183444
0.038624
1.28072
1.4031
1.03956
0.895159
0.760204
0.618516
0.474148
0.328943
0.183325
0.0377302
1.2851
1.39989
1.04901
0.895426
0.759626
0.61827
0.474071
0.328911
0.18319
0.0365659
1.29052
1.3974
1.05587
0.895512
0.759104
0.618051
0.474004
0.328883
0.183049
0.035098
1.29605
1.39548
1.06034
0.895362
0.758635
0.617864
0.473948
0.328859
0.18291
0.0332872
1.30078
1.39462
1.06269
0.894924
0.758202
0.617705
0.473902
0.328842
0.182792
0.0309384
1.30417
1.39585
1.06294
0.894188
0.757814
0.61758
0.473868
0.328834
0.182832
0.0276955
0
0
0.875916
0.948481
0.775833
0.62286
0.475317
0.329205
0.182757
0.0237406
0
0
0.872985
0.941463
0.775214
0.62273
0.475287
0.3292
0.182755
0.0258124
0
0
0.840195
0.937348
0.774265
0.622529
0.475239
0.329193
0.18282
0.0279055
0
0
0.82655
0.928048
0.773066
0.622269
0.475177
0.329185
0.182924
0.0296921
1.3331
1.46657
0.829926
0.919143
0.77164
0.621962
0.475103
0.329176
0.183041
0.0311404
1.33084
1.46519
0.848263
0.911203
0.770102
0.62162
0.475018
0.329164
0.183156
0.0322889
1.32481
1.4613
0.871606
0.904966
0.768552
0.621254
0.474926
0.329149
0.183258
0.0331702
1.31573
1.45492
0.900065
0.900494
0.767063
0.620875
0.474828
0.329131
0.183339
0.0338096
1.30612
1.44691
0.928255
0.897572
0.76569
0.620492
0.474725
0.32911
0.183392
0.0342255
1.29773
1.43843
0.954073
0.895809
0.764452
0.620112
0.47462
0.329085
0.183417
0.0344298
1.29117
1.43021
0.977062
0.894886
0.763348
0.619744
0.474516
0.329057
0.183409
0.0344285
1.28679
1.42267
0.99709
0.894543
0.76237
0.619391
0.474413
0.329026
0.183371
0.0342216
1.28499
1.41606
1.01418
0.894562
0.761506
0.619059
0.474314
0.328993
0.183303
0.0338032
1.28582
1.4105
1.02843
0.894766
0.760743
0.618749
0.47422
0.32896
0.183209
0.0331613
1.28917
1.40599
1.04
0.89501
0.760066
0.618466
0.474134
0.328926
0.183095
0.0322778
1.29486
1.4025
1.04903
0.89518
0.759461
0.618212
0.474055
0.328895
0.182969
0.0311273
1.30243
1.39996
1.05569
0.895189
0.758919
0.617987
0.473987
0.328867
0.182842
0.0296772
1.31022
1.39822
1.06015
0.894985
0.758433
0.617796
0.473929
0.328844
0.18273
0.0278891
1.31558
1.39735
1.06262
0.894587
0.75802
0.617645
0.473885
0.328828
0.18266
0.0257948
1.31763
1.39727
1.06303
0.894044
0.757713
0.617545
0.473858
0.328818
0.182659
0.0237223

VECTORS velocity float
0 0 0
0 0 0
0.710506 -0.0298946 -0.00314976
0.645918 -0.0021735 0.0010623
0.667781 -0.000611052 0.000134235
0.674471 -0.000139931 2.96134e-05
0.676 -3.11122e-05 6.69507e-06
0.67638 -8.73025e-06 -3.05223e-06
0.676765 -2.7303e-06 -5.1051e-05
0.70249 -0.00175255 -0.00158327
0 0 0
0 0 0
-0.0951536 -0.0885421 -0.00257949
0.666652 -0.0113435 0.000854721
0.741459 -0.00223309 0.000198999
0.752323 -0.000476902 4.43274e-05
0.75445 -0.000105011 9.76013e-06
0.754958 -2.90769e-05 -2.46685e-06
0.755786 -4.94735e-05 -5.18558e-05
0.766788 -0.00353135 -0.00200814
0 0 0
0 0 0
0.734775 -0.15063 -0.00117274
0.711008 -0.0219384 0.000701803
0.751575 -0.00414023 0.000173939
0.761414 -0.00087053 4.37167e-05
0.763546 -0.000191267 9.94914e-06
0.764059 -5.21379e-05 -2.65641e-06
0.764812 -0.000126137 -5.97041e-05
0.773161 -0.00329012 -0.00207975
0 0 0
0 0 0
-0.0810942 -0.215318 -0.00013836
0.686239 -0.0313096 1.34201e-05
0.752432 -0.00595998 0.000140642
0.762626 -0.00125356 4.06249e-05
0.764649 -0.000275583 9.36859e-06
0.765128 -7.38064e-05 -3.04267e-06
0.765735 -0.000174634 -6.62227e-05
0.773964 -0.00274457 -0.00210406
0.382785 -0.0159678 -0.0342729
0.75216 0.00847901 -0.0246839
0.736251 -0.24698 0.01147
0.714863 -0.0409616 0.00118306
0.754644 -0.00766269 0.000177881
0.763008 -0.00160534 3.80858e-05
0.764795 -0.000352974 8.40268e-06
0.765221 -9.25698e-05 -3.50261e-06
0.765703 -0.000193617 -6.95069e-05
0.77415 -0.0022158 -0.00211504
0.466682 -0.0427455 -0.0426602
0.914021 0.0176272 -0.0265261
0.883882 -0.239888 0.0164154
0.739822 -0.047095 0.00210436
0.756993 -0.00905708 0.000199855
0.763372 -0.00191004 3.37151e-05
0.764873 -0.000420679 7.10393e-06
0.765235 -0.000107711 -4.01742e-06
0.765614 -0.00019031 -7.15016e-05
0.774264 -0.00173971 -0.00212217
0.51434 -0.0581948 -0.0485012
0.936349 0.0165979 -0.0232247
0.910661 -0.222619 0.0120219
0.753644 -0.0504172 0.00178068
0.759112 -0.0101232 0.00016372
0.763769 -0.00215925 2.64348e-05
0.764957 -0.000476768 5.525e-06
0.765247 -0.000118859 -4.54915e-06
0.765543 -0.000170333 -7.27472e-05
0.774351 -0.00130882 -0.00212688
0.553338 -0.062375 -0.0531388
0.934926 0.0129492 -0.0201968
0.91188 -0.20183 0.00686623
0.763658 -0.0516037 0.0011746
0.761244 -0.010859 0.000114917
0.764204 -0.00234682 1.8424e-05
0.76505 -0.00051973 3.79498e-06
0.765261 -0.000125874 -5.07554e-06
0.765493 -0.000138199 -7.35352e-05
0.774415 -0.00091245 -0.00212991
0.585026 -0.0574026 -0.0568968
0.930685 0.00954652 -0.0183564
0.909576 -0.17999 0.00364204
0.77237 -0.0510886 0.000691222
0.76343 -0.0112625 6.7091e-05
0.764667 -0.00246832 1.03206e-05
0.76515 -0.000548452 1.98693e-06
0.765279 -0.000128795 -5.58169e-06
0.765462 -9.76459e-05 -7.40256e-05
0.774458 -0.000540219 -0.00213172
0.609444 -0.0452752 -0.059967
0.926619 0.00743292 -0.0173742
0.90699 -0.158569 0.00162133
0.779997 -0.0492441 0.000354336
0.765588 -0.0113412 2.55663e-05
0.765142 -0.0025215 2.50276e-06