# vtk DataFile Version 2.0
TestTestTest
ASCII

DATASET STRUCTURED_GRID
DIMENSIONS 11 21 11
POINTS 2541 float
0 0 0
0.5 0 0
1 0 0
1.5 0 0
2 0 0
2.5 0 0
3 0 0
3.5 0 0
4 0 0
4.5 0 0
5 0 0
0 0.05 0
0.5 0.05 0
1 0.05 0
1.5 0.05 0
2 0.05 0
2.5 0.05 0
3 0.05 0
3.5 0.05 0
4 0.05 0
4.5 0.05 0
5 0.05 0
0 0.1 0
0.5 0.1 0
1 0.1 0
1.5 0.1 0
2 0.1 0
2.5 0.1 0
3 0.1 0
3.5 0.1 0
4 0.1 0
4.5 0.1 0
5 0.1 0
0 0.15 0
0.5 0.15 0
1 0.15 0
1.5 0.15 0
2 0.15 0
2.5 0.15 0
3 0.15 0
3.5 0.15 0
4 0.15 0
4.5 0.15 0
5 0.15 0
0 0.2 0
0.5 0.2 0
1 0.2 0
1.5 0.2 0
2 0.2 0
2.5 0.2 0
3 0.2 0
3.5 0.2 0
4 0.2 0
4.5 0.2 0
5 0.2 0
0 0.25 0
0.5 0.25 0
1 0.25 0
1.5 0.25 0
2 0.25 0
2.5 0.25 0
3 0.25 0
3.5 0.25 0
4 0.25 0
4.5 0.25 0
5 0.25 0
0 0.3 0
0.5 0.3 0
1 0.3 0
1.5 0.3 0
2 0.3 0
2.5 0.3 0
3 0.3 0
3.5 0.3 0
4 0.3 0
4.5 0.3 0
5 0.3 0
0 0.35 0
0.5 0.35 0
1 0.35 0
1.5 0.35 0
2 0.35 0
2.5 0.35 0
3 0.35 0
3.5 0.35 0
4 0.35 0
4.5 0.35 0
5 0.35 0
0 0.4 0
0.5 0.4 0
1 0.4 0
1.5 0.4 0
2 0.4 0
2.5 0.4 0
3 0.4 0
3.5 0.4 0
4 0.4 0
4.5 0.4 0
5 0.4 0
0 0.45 0
0.5 0.45 0
1 0.45 0
1.5 0.45 0
2 0.45 0
2.5 0.45 0
3 0.45 0
3.5 0.45 0
4 0.45 0
4.5 0.45 0
5 0.45 0
0 0.5 0
0.5 0.5 0
1 0.5 0
1.5 0.5 0
2 0.5 0
2.5 0.5 0
3 0.5 0
3.5 0.5 0
4 0.5 0
4.5 0.5 0
5 0.5 0
0 0.55 0
0.5 0.55 0
1 0.55 0
1.5 0.55 0
2 0.55 0
2.5 0.55 0
3 0.55 0
3.5 0.55 0
4 0.55 0
4.5 0.55 0
5 0.55 0
0 0.6 0
0.5 0.6 0
1 0.6 0
1.5 0.6 0
2 0.6 0
2.5 0.6 0
3 0.6 0
3.5 0.6 0
4 0.6 0
4.5 0.6 0
5 0.6 0
0 0.65 0
0.5 0.65 0
1 0.65 0
1.5 0.65 0
2 0.65 0
2.5 0.65 0
3 0.65 0
3.5 0.65 0
4 0.65 0
4.5 0.65 0
5 0.65 0
0 0.7 0
0.5 0.7 0
1 0.7 0
1.5 0.7 0
2 0.7 0
2.5 0.7 0
3 0.7 0
3.5 0.7 0
4 0.7 0
4.5 0.7 0
5 0.7 0
0 0.75 0
0.5 0.75 0
1 0.75 0
1.5 0.75 0
2 0.75 0
2.5 0.75 0
3 0.75 0
3.5 0.75 0
4 0.75 0
4.5 0.75 0
5 0.75 0
0 0.8 0
0.5 0.8 0
1 0.8 0
1.5 0.8 0
2 0.8 0
2.5 0.8 0
3 0.8 0
3.5 0.8 0
4 0.8 0
4.5 0.8 0
5 0.8 0
0 0.85 0
0.5 0.85 0
1 0.85 0
1.5 0.85 0
2 0.85 0
2.5 0.85 0
3 0.85 0
3.5 0.85 0
4 0.85 0
4.5 0.85 0
5 0.85 0
0 0.9 0
0.5 0.9 0
1 0.9 0
1.5 0.9 0
2 0.9 0
2.5 0.9 0
3 0.9 0
3.5 0.9 0
4 0.9 0
4.5 0.9 0
5 0.9 0
0 0.95 0
0.5 0.95 0
1 0.95 0
1.5 0.95 0
2 0.95 0
2.5 0.95 0
3 0.95 0
3.5 0.95 0
4 0.95 0
4.5 0.95 0
5 0.95 0
0 1 0
0.5 1 0
1 1 0
1.5 1 0
2 1 0
2.5 1 0
3 1 0
3.5 1 0
4 1 0
4.5 1 0
5 1 0
0 0 0.1
0.5 0 0.1
1 0 0.1
1.5 0 0.1
2 0 0.1
2.5 0 0.1
3 0 0.1
3.5 0 0.1
4 0 0.1
4.5 0 0.1
5 0 0.1
0 0.05 0.1
0.5 0.05 0.1
1 0.05 0.1
1.5 0.05 0.1
2 0.05 0.1
2.5 0.05 0.1
3 0.05 0.1
3.5 0.05 0.1
4 0.05 0.1
4.5 0.05 0.1
5 0.05 0.1
0 0.1 0.1
0.5 0.1 0.1
1 0.1 0.1
1.5 0.1 0.1
2 0.1 0.1
2.5 0.1 0.1
3 0.1 0.1
3.5 0.1 0.1
4 0.1 0.1
4.5 0.1 0.1
5 0.1 0.1
0 0.15 0.1
0.5 0.15 0.1
1 0.15 0.1
1.5 0.15 0.1
2 0.15 0.1
2.5 0.15 0.1
3 0.15 0.1
3.5 0.15 0.1
4 0.15 0.1
4.5 0.15 0.1
5 0.15 0.1
0 0.2 0.1
0.5 0.2 0.1
1 0.2 0.1
1.5 0.2 0.1
2 0.2 0.1
2.5 0.2 0.1
3 0.2 0.1
3.5 0.2 0.1
4 0.2 0.1
4.5 0.2 0.1
5 0.2 0.1
0 0.25 0.1
0.5 0.25 0.1
1 0.25 0.1
1.5 0.25 0.1
2 0.25 0.1
2.5 0.25 0.1
3 0.25 0.1
3.5 0.25 0.1
4 0.25 0.1
4.5 0.25 0.1
5 0.25 0.1
0 0.3 0.1
0.5 0.3 0.1
1 0.3 0.1
1.5 0.3 0.1
2 0.3 0.1
2.5 0.3 0.1
3 0.3 0.1
3.5 0.3 0.1
4 0.3 0.1
4.5 0.3 0.1
5 0.3 0.1
0 0.35 0.1
0.5 0.35 0.1
1 0.35 0.1
1.5 0.35 0.1
2 0.35 0.1
2.5 0.35 0.1
3 0.35 0.1
3.5 0.35 0.1
4 0.35 0.1
4.5 0.35 0.1
5 0.35 0.1
0 0.4 0.1
0.5 0.4 0.1
1 0.4 0.1
1.5 0.4 0.1
2 0.4 0.1
2.5 0.4 0.1
3 0.4 0.1
3.5 0.4 0.1
4 0.4 0.1
4.5 0.4 0.1
5 0.4 0.1
0 0.45 0.1
0.5 0.45 0.1
1 0.45 0.1
1.5 0.45 0.1
2 0.45 0.1
2.5 0.45 0.1
3 0.45 0.1
3.5 0.45 0.1
4 0.45 0.1
4.5 0.45 0.1
5 0.45 0.1
0 0.5 0.1
0.5 0.5 0.1
1 0.5 0.1
1.5 0.5 0.1
2 0.5 0.1
2.5 0.5 0.1
3 0.5 0.1
3.5 0.5 0.1
4 0.5 0.1
4.5 0.5 0.1
5 0.5 0.1
0 0.55 0.1
0.5 0.55 0.1
1 0.55 0.1
1.5 0.55 0.1
2 0.55 0.1
2.5 0.55 0.1
3 0.55 0.1
3.5 0.55 0.1
4 0.55 0.1
4.5 0.55 0.1
5 0.55 0.1
0 0.6 0.1
0.5 0.6 0.1
1 0.6 0.1
1.5 0.6 0.1
2 0.6 0.1
2.5 0.6 0.1
3 0.6 0.1
3.5 0.6 0.1
4 0.6 0.1
4.5 0.6 0.1
5 0.6 0.1
0 0.65 0.1
0.5 0.65 0.1
1 0.65 0.1
1.5 0.65 0.1
2 0.65 0.1
2.5 0.65 0.1
3 0.65 0.1
3.5 0.65 0.1
4 0.65 0.1
4.5 0.65 0.1
5 0.65 0.1
0 0.7 0.1
0.5 0.7 0.1
1 0.7 0.1
1.5 0.7 0.1
2 0.7 0.1
2.5 0.7 0.1
3 0.7 0.1
3.5 0.7 0.1
4 0.7 0.1
4.5 0.7 0.1
5 0.7 0.1
0 0.75 0.1
0.5 0.75 0.1
1 0.75 0.1
1.5 0.75 0.1
2 0.75 0.1
2.5 0.75 0.1
3 0.75 0.1
3.5 0.75 0.1
4 0.75 0.1
4.5 0.75 0.1
5 0.75 0.1
0 0.8 0.1
0.5 0.8 0.1
1 0.8 0.1
1.5 0.8 0.1
2 0.8 0.1
2.5 0.8 0.1
3 0.8 0.1
3.5 0.8 0.1
4 0.8 0.1
4.5 0.8 0.1
5 0.8 0.1
0 0.85 0.1
0.5 0.85 0.1
1 0.85 0.1
1.5 0.85 0.1
2 0.85 0.1
2.5 0.85 0.1
3 0.85 0.1
3.5 0.85 0.1
4 0.85 0.1
4.5 0.85 0.1
5 0.85 0.1
0 0.9 0.1
0.5 0.9 0.1
1 0.9 0.1
1.5 0.9 0.1
2 0.9 0.1
2.5 0.9 0.1
3 0.9 0.1
3.5 0.9 0.1
4 0.9 0.1
4.5 0.9 0.1
5 0.9 0.1
0 0.95 0.1
0.5 0.95 0.1
1 0.95 0.1
1.5 0.95 0.1
2 0.95 0.1
2.5 0.95 0.1
3 0.95 0.1
3.5 0.95 0.1
4 0.95 0.1
4.5 0.95 0.1
5 0.95 0.1
0 1 0.1
0.5 1 0.1
1 1 0.1
1.5 1 0.1
2 1 0.1
2.5 1 0.1
3 1 0.1
3.5 1 0.1
4 1 0.1
4.5 1 0.1
5 1 0.1
0 0 0.2
0.5 0 0.2
1 0 0.2
1.5 0 0.2
2 0 0.2
2.5 0 0.2
3 0 0.2
3.5 0 0.2
4 0 0.2
4.5 0 0.2
5 0 0.2
0 0.05 0.2
0.5 0.05 0.2
1 0.05 0.2
1.5 0.05 0.2
2 0.05 0.2
2.5 0.05 0.2
3 0.05 0.2
3.5 0.05 0.2
4 0.05 0.2
4.5 0.05 0.2
5 0.05 0.2
0 0.1 0.2
0.5 0.1 0.2
1 0.1 0.2
1.5 0.1 0.2
2 0.1 0.2
2.5 0.1 0.2
3 0.1 0.2
3.5 0.1 0.2
4 0.1 0.2
4.5 0.1 0.2
5 0.1 0.2
0 0.15 0.2
0.5 0.15 0.2
1 0.15 0.2
1.5 0.15 0.2
2 0.15 0.2
2.5 0.15 0.2
3 0.15 0.2
3.5 0.15 0.2
4 0.15 0.2
4.5 0.15 0.2
5 0.15 0.2
0 0.2 0.2
0.5 0.2 0.2
1 0.2 0.2
1.5 0.2 0.2
2 0.2 0.2
2.5 0.2 0.2
3 0.2 0.2
3.5 0.2 0.2
4 0.2 0.2
4.5 0.2 0.2
5 0.2 0.2
0 0.25 0.2
0.5 0.25 0.2
1 0.25 0.2
1.5 0.25 0.2
2 0.25 0.2
2.5 0.25 0.2
3 0.25 0.2
3.5 0.25 0.2
4 0.25 0.2
4.5 0.25 0.2
5 0.25 0.2
0 0.3 0.2
0.5 0.3 0.2
1 0.3 0.2
1.5 0.3 0.2
2 0.3 0.2
2.5 0.3 0.2
3 0.3 0.2
3.5 0.3 0.2
4 0.3 0.2
4.5 0.3 0.2
5 0.3 0.2
0 0.35 0.2
0.5 0.35 0.2
1 0.35 0.2
1.5 0.35 0.2
2 0.35 0.2
2.5 0.35 0.2
3 0.35 0.2
3.5 0.35 0.2
4 0.35 0.2
4.5 0.35 0.2
5 0.35 0.2
0 0.4 0.2
0.5 0.4 0.2
1 0.4 0.2
1.5 0.4 0.2
2 0.4 0.2
2.5 0.4 0.2
3 0.4 0.2
3.5 0.4 0.2
4 0.4 0.2
4.5 0.4 0.2
5 0.4 0.2
0 0.45 0.2
0.5 0.45 0.2
1 0.45 0.2
1.5 0.45 0.2
2 0.45 0.2
2.5 0.45 0.2
3 0.45 0.2
3.5 0.45 0.2
4 0.45 0.2
4.5 0.45 0.2
5 0.45 0.2
0 0.5 0.2
0.5 0.5 0.2
1 0.5 0.2
1.5 0.5 0.2
2 0.5 0.2
2.5 0.5 0.2
3 0.5 0.2
3.5 0.5 0.2
4 0.5 0.2
4.5 0.5 0.2
5 0.5 0.2
0 0.55 0.2
0.5 0.55 0.2
1 0.55 0.2
1.5 0.55 0.2
2 0.55 0.2
2.5 0.55 0.2
3 0.55 0.2
3.5 0.55 0.2
4 0.55 0.2
4.5 0.55 0.2
5 0.55 0.2
0 0.6 0.2
0.5 0.6 0.2
1 0.6 0.2
1.5 0.6 0.2
2 0.6 0.2
2.5 0.6 0.2
3 0.6 0.2
3.5 0.6 0.2
4 0.6 0.2
4.5 0.6 0.2
5 0.6 0.2
0 0.65 0.2
0.5 0.65 0.2
1 0.65 0.2
1.5 0.65 0.2
2 0.65 0.2
2.5 0.65 0.2
3 0.65 0.2
3.5 0.65 0.2
4 0.65 0.2
4.5 0.65 0.2
5 0.65 0.2
0 0.7 0.2
0.5 0.7 0.2
1 0.7 0.2
1.5 0.7 0.2
2 0.7 0.2
2.5 0.7 0.2
3 0.7 0.2
3.5 0.7 0.2
4 0.7 0.2
4.5 0.7 0.2
5 0.7 0.2
0 0.75 0.2
0.5 0.75 0.2
1 0.75 0.2
1.5 0.75 0.2
2 0.75 0.2
2.5 0.75 0.2
3 0.75 0.2
3.5 0.75 0.2
4 0.75 0.2
4.5 0.75 0.2
5 0.75 0.2
0 0.8 0.2
0.5 0.8 0.2
1 0.8 0.2
1.5 0.8 0.2
2 0.8 0.2
2.5 0.8 0.2
3 0.8 0.2
3.5 0.8 0.2
4 0.8 0.2
4.5 0.8 0.2
5 0.8 0.2
0 0.85 0.2
0.5 0.85 0.2
1 0.85 0.2
1.5 0.85 0.2
2 0.85 0.2
2.5 0.85 0.2
3 0.85 0.2
3.5 0.85 0.2
4 0.85 0.2
4.5 0.85 0.2
5 0.85 0.2
0 0.9 0.2
0.5 0.9 0.2
1 0.9 0.2
1.5 0.9 0.2
2 0.9 0.2
2.5 0.9 0.2
3 0.9 0.2
3.5 0.9 0.2
4 0.9 0.2
4.5 0.9 0.2
5 0.9 0.2
0 0.95 0.2
0.5 0.95 0.2
1 0.95 0.2
1.5 0.95 0.2
2 0.95 0.2
2.5 0.95 0.2
3 0.95 0.2
3.5 0.95 0.2
4 0.95 0.2
4.5 0.95 0.2
5 0.95 0.2
0 1 0.2
0.5 1 0.2
1 1 0.2
1.5 1 0.2
2 1 0.2
2.5 1 0.2
3 1 0.2
3.5 1 0.2
4 1 0.2
4.5 1 0.2
5 1 0.2
0 0 0.3
0.5 0 0.3
1 0 0.3
1.5 0 0.3
2 0 0.3
2.5 0 0.3
3 0 0.3
3.5 0 0.3
4 0 0.3
4.5 0 0.3
5 0 0.3
0 0.05 0.3
0.5 0.05 0.3
1 0.05 0.3
1.5 0.05 0.3
2 0.05 0.3
2.5 0.05 0.3
3 0.05 0.3
3.5 0.05 0.3
4 0.05 0.3
4.5 0.05 0.3
5 0.05 0.3
0 0.1 0.3
0.5 0.1 0.3
1 0.1 0.3
1.5 0.1 0.3
2 0.1 0.3
2.5 0.1 0.3
3 0.1 0.3
3.5 0.1 0.3
4 0.1 0.3
4.5 0.1 0.3
5 0.1 0.3
0 0.15 0.3
0.5 0.15 0.3
1 0.15 0.3
1.5 0.15 0.3
2 0.15 0.3
2.5 0.15 0.3
3 0.15 0.3
3.5 0.15 0.3
4 0.15 0.3
4.5 0.15 0.3
5 0.15 0.3
0 0.2 0.3
0.5 0.2 0.3
1 0.2 0.3
1.5 0.2 0.3
2 0.2 0.3
2.5 0.2 0.3
3 0.2 0.3
3.5 0.2 0.3
4 0.2 0.3
4.5 0.2 0.3
5 0.2 0.3
0 0.25 0.3
0.5 0.25 0.3
1 0.25 0.3
1.5 0.25 0.3
2 0.25 0.3
2.5 0.25 0.3
3 0.25 0.3
3.5 0.25 0.3
4 0.25 0.3
4.5 0.25 0.3
5 0.25 0.3
0 0.3 0.3
0.5 0.3 0.3
1 0.3 0.3
1.5 0.3 0.3
2 0.3 0.3
2.5 0.3 0.3
3 0.3 0.3
3.5 0.3 0.3
4 0.3 0.3
4.5 0.3 0.3
5 0.3 0.3
0 0.35 0.3
0.5 0.35 0.3
1 0.35 0.3
1.5 0.35 0.3
2 0.35 0.3
2.5 0.35 0.3
3 0.35 0.3
3.5 0.35 0.3
4 0.35 0.3
4.5 0.35 0.3
5 0.35 0.3
0 0.4 0.3
0.5 0.4 0.3
1 0.4 0.3
1.5 0.4 0.3
2 0.4 0.3
2.5 0.4 0.3
3 0.4 0.3
3.5 0.4 0.3
4 0.4 0.3
4.5 0.4 0.3
5 0.4 0.3
0 0.45 0.3
0.5 0.45 0.3
1 0.45 0.3
1.5 0.45 0.3
2 0.45 0.3
2.5 0.45 0.3
3 0.45 0.3
3.5 0.45 0.3
4 0.45 0.3
4.5 0.45 0.3
5 0.45 0.3
0 0.5 0.3
0.5 0.5 0.3
1 0.5 0.3
1.5 0.5 0.3
2 0.5 0.3
2.5 0.5 0.3
3 0.5 0.3
3.5 0.5 0.3
4 0.5 0.3
4.5 0.5 0.3
5 0.5 0.3
0 0.55 0.3
0.5 0.55 0.3
1 0.55 0.3
1.5 0.55 0.3
2 0.55 0.3
2.5 0.55 0.3
3 0.55 0.3
3.5 0.55 0.3
4 0.55 0.3
4.5 0.55 0.3
5 0.55 0.3
0 0.6 0.3
0.5 0.6 0.3
1 0.6 0.3
1.5 0.6 0.3
2 0.6 0.3
2.5 0.6 0.3
3 0.6 0.3
3.5 0.6 0.3
4 0.6 0.3
4.5 0.6 0.3
5 0.6 0.3
0 0.65 0.3
0.5 0.65 0.3
1 0.65 0.3
1.5 0.65 0.3
2 0.65 0.3
2.5 0.65 0.3
3 0.65 0.3
3.5 0.65 0.3
4 0.65 0.3
4.5 0.65 0.3
5 0.65 0.3
0 0.7 0.3
0.5 0.7 0.3
1 0.7 0.3
1.5 0.7 0.3
2 0.7 0.3
2.5 0.7 0.3
3 0.7 0.3
3.5 0.7 0.3
4 0.7 0.3
4.5 0.7 0.3
5 0.7 0.3
0 0.75 0.3
0.5 0.75 0.3
1 0.75 0.3
1.5 0.75 0.3
2 0.75 0.3
2.5 0.75 0.3
3 0.75 0.3
3.5 0.75 0.3
4 0.75 0.3
4.5 0.75 0.3
5 0.75 0.3
0 0.8 0.3
0.5 0.8 0.3
1 0.8 0.3
1.5 0.8 0.3
2 0.8 0.3
2.5 0.8 0.3
3 0.8 0.3
3.5 0.8 0.3
4 0.8 0.3
4.5 0.8 0.3
5 0.8 0.3
0 0.85 0.3
0.5 0.85 0.3
1 0.85 0.3
1.5 0.85 0.3
2 0.85 0.3
2.5 0.85 0.3
3 0.85 0.3
3.5 0.85 0.3
4 0.85 0.3
4.5 0.85 0.3
5 0.85 0.3
0 0.9 0.3
0.5 0.9 0.3
1 0.9 0.3
1.5 0.9 0.3
2 0.9 0.3
2.5 0.9 0.3
3 0.9 0.3
3.5 0.9 0.3
4 0.9 0.3
4.5 0.9 0.3
5 0.9 0.3
0 0.95 0.3
0.5 0.95 0.3
1 0.95 0.3
1.5 0.95 0.3
2 0.95 0.3
2.5 0.95 0.3
3 0.95 0.3
3.5 0.95 0.3
4 0.95 0.3
4.5 0.95 0.3
5 0.95 0.3
0 1 0.3
0.5 1 0.3
1 1 0.3
1.5 1 0.3
2 1 0.3
2.5 1 0.3
3 1 0.3
3.5 1 0.3
4 1 0.3
4.5 1 0.3
5 1 0.3
0 0 0.4
[...]
CELL_DATA 2000
SCALARS pressure float 1
LOOKUP_TABLE default
0
0
0.906357
1.00576
0.825372
0.664142
0.507092
0.351118
0.194632
0.0242629
0
0
0.904796
0.998024
0.824717
0.664011
0.507061
0.351113
0.19466
0.0268485
0
0
0.867113
0.993459
0.823788
0.663828
0.507018
0.351108
0.194748
0.0292245
0
0
0.855954
0.983182
0.822687
0.663605
0.506965
0.351104
0.19487
0.0312049
1.60213
1.73851
0.86533
0.973913
0.821453
0.663352
0.506902
0.351098
0.195003
0.0328138
1.59811
1.72882
0.894739
0.966864
0.820197
0.663078
0.506833
0.351091
0.195132
0.034093
1.58977
1.71411
0.930241
0.962206
0.819001
0.662791
0.506758
0.351081
0.195246
0.0350767
1.57791
1.69732
0.968518
0.959542
0.817918
0.6625
0.506679
0.351068
0.195336
0.0357915
1.56541
1.68041
1.00449
0.958411
0.816973
0.662211
0.506597
0.351051
0.195397
0.036257
1.55426
1.6645
1.03691
0.958379
0.816166
0.66193
0.506514
0.351031
0.195425
0.036486
1.54526
1.6501
1.06542
0.959093
0.815487
0.66166
0.506432
0.351008
0.195418
0.0364848
1.53887
1.63742
1.09002
0.960264
0.814918
0.661404
0.506351
0.350981
0.195378
0.0362535
1.53561
1.62648
1.11087
0.961656
0.814439
0.661164
0.506272
0.350952
0.195305
0.0357857
1.53557
1.61727
1.12817
0.96308
0.814028
0.660941
0.506198
0.350922
0.195203
0.0350687
1.53855
1.60973
1.1422
0.964383
0.813666
0.660736
0.506129
0.350891
0.195078
0.034083
1.54431
1.60382
1.15317
0.965447
0.813335
0.66055
0.506065
0.350862
0.19494
0.0328019
1.55233
1.59951
1.16133
0.966181
0.813017
0.660381
0.506009
0.350835
0.194798
0.0311913
1.56076
1.59676
1.16687
0.96652
0.812703
0.660232
0.505961
0.350813
0.194669
0.0292096
1.56688
1.59561
1.16999
0.966446
0.812393
0.660106
0.505922
0.350796
0.194576
0.0268324
1.56984
1.5958
1.17067
0.965988
0.812109
0.660009
0.505894
0.350786
0.194544
0.024246
0
0
0.915343
1.00194
0.825143
0.664078
0.507077
0.35113
0.194832
0.0287858
0
0
0.912142
0.995252
0.824287
0.663917
0.507041
0.351123
0.194866
0.0323118
0
0
0.875778
0.991009
0.823388
0.663732
0.506997
0.351119
0.194983
0.034825
0
0
0.887738
0.983432
0.822283
0.663514
0.506945
0.351115
0.195119
0.0368484
1.58572
1.75273
0.825716
0.972871
0.821076
0.66327
0.506885
0.35111
0.195261
0.038486
1.58097
1.76162
0.850952
0.963652
0.81985
0.663007
0.506818
0.351104
0.195396
0.0397841
1.57317
1.7374
0.901478
0.959314
0.818715
0.662735
0.506747
0.351096
0.195513
0.0407802
1.56316
1.71271
0.94901
0.957592
0.81771
0.662459
0.506671
0.351084
0.195605
0.041503
1.55172
1.6909
0.992038
0.957186
0.816845
0.662187
0.506593
0.351069
0.195667
0.0419733
1.54035
1.67191
1.02921
0.957683
0.816112
0.661921
0.506514
0.35105
0.195696
0.0422045
1.53118
1.65538
1.06085
0.958783
0.815498
0.661667
0.506435
0.351027
0.19569
0.0422034
1.52479
1.64117
1.08752
0.960233
0.814985
0.661426
0.506358
0.351002
0.195649
0.0419699
1.52139
1.62912
1.10974
0.961828
0.814554
0.6612
0.506283
0.350973
0.195575
0.0414975
1.52106
1.61905
1.12795
0.963398
0.814183
0.66099
0.506212
0.350943
0.195471
0.0407727
1.52397
1.61077
1.14252
0.964806
0.813855
0.660795
0.506145
0.350913
0.195344
0.0397746
1.52976
1.60402
1.15378
0.965946
0.81355
0.660617
0.506084
0.350883
0.1952
0.0384747
1.5366
1.5987
1.16203
0.966733
0.813254
0.660456
0.50603
0.350856
0.19505
0.0368355
1.54322
1.59495
1.16751
0.967109
0.812957
0.660312
0.505983
0.350833
0.194906
0.0348107
1.54898
1.59311
1.17044
0.967016
0.812644
0.660184
0.505943
0.350816
0.194784
0.0322964
1.55329
1.59396
1.17087
0.966382
0.812292
0.660067
0.505911
0.350805
0.194746
0.0287695
0
0
0.925483
1.00099
0.825059
0.664029
0.507065
0.351152
0.195137
0.03213
0
0
0.921223
0.99527
0.824198
0.663864
0.507028
0.351145
0.195179
0.0358037
0
0
0.891565
0.992152
0.82334
0.663679
0.506984
0.351142
0.195307
0.0384043
0
0
0.905073
0.986212
0.822306
0.663467
0.506933
0.351139
0.195453
0.0404853
1.56942
1.75153
0.812762
0.975952
0.82114
0.66323
0.506874
0.351136
0.195603
0.0421607
1.56405
1.7873
0.802096
0.964426
0.819892
0.662974
0.50681
0.351131
0.195743
0.0434842
1.55864
1.77466
0.858053
0.957138
0.81868
0.662708
0.50674
0.351124
0.195864
0.0444973
1.55629
1.74254
0.922191
0.954784
0.817621
0.66244
0.506667
0.351113
0.195959
0.0452311
1.55544
1.71225
0.974628
0.954895
0.816746
0.662175
0.506592
0.351099
0.196023
0.045708
1.55429
1.68647
1.01795
0.955972
0.816033
0.661918
0.506516
0.35108
0.196053
0.0459423
1.55201
1.66511
1.0539
0.957558
0.815449
0.661673
0.50644
0.351058
0.196047
0.0459412
1.54861
1.64767
1.08359
0.959401
0.81497
0.661441
0.506365
0.351033
0.196005
0.0457047
1.54505
1.63362
1.10794
0.961307
0.814573
0.661224
0.506293
0.351005
0.19593
0.0452258
1.54136
1.62252
1.12761
0.963124
0.814236
0.661022
0.506224
0.350976
0.195824
0.04449
1.53688
1.61389
1.14316
0.964726
0.813936
0.660835
0.506159
0.350945
0.195693
0.043475
1.53196
1.60713
1.15493
0.966019
0.813658
0.660663
0.5061
0.350915
0.195543
0.0421497
1.52792
1.60148
1.16322
0.966932
0.813387
0.660507
0.506047
0.350888
0.195386
0.0404728
1.5271
1.59684
1.16849
0.967389
0.813108
0.660366
0.506
0.350864
0.195232
0.0383905
1.53101
1.59414
1.17121
0.967321
0.812799
0.660239
0.505961
0.350846
0.195099
0.0357888
1.5365
1.59469
1.17151
0.966666
0.812437
0.660118
0.505927
0.350834
0.195052
0.0321141
0
0
0.929694
1.00142
0.825074
0.664002
0.507058
0.351174
0.195399
0.0342275
0
0
0.925238
0.996014
0.824225
0.663837
0.50702
0.351168
0.195445
0.0379321
0
0
0.895062
0.993468
0.8234
0.663655
0.506977
0.351166
0.195576
0.0405652
0
0
0.903836
0.988261
0.822416
0.663447
0.506927
0.351164
0.195728
0.0426739
1.56128
1.76554
0.807437
0.978363
0.821301
0.663216
0.506869
0.351161
0.195882
0.0443713
1.55626
1.80687
0.782267
0.966421
0.820082
0.662966
0.506806
0.351157
0.196026
0.0457114
1.55371
1.80043
0.823422
0.957647
0.818831
0.662704
0.506738
0.35115
0.19615
0.0467365
1.55864
1.7674
0.893596
0.953801
0.817678
0.662437
0.506666
0.35114
0.196247
0.0474787
1.57035
1.7312
0.956868
0.953386
0.816723
0.662172
0.506592
0.351126
0.196312
0.0479607
1.58403
1.6988
1.00705
0.954457
0.815964
0.661917
0.506518
0.351109
0.196342
0.0481976
1.59395
1.6708
1.0473
0.956179
0.815361
0.661674
0.506443
0.351087
0.196337
0.0481965
1.59702
1.6481
1.0801
0.958212
0.814879
0.661445
0.50637
0.351062
0.196294
0.0479576
1.59341
1.63157
1.10677
0.960333
0.81449
0.661231
0.506299
0.351035
0.196218
0.0474735
1.583
1.62077
1.12797
0.96239
0.814172
0.661033
0.506232
0.351005
0.19611
0.0467294
1.56585
1.61381
1.14416
0.964258
0.813907
0.660852
0.506169
0.350975
0.195976
0.0457024
1.54549
1.60845
1.15599
0.965798
0.81367
0.660687
0.50611
0.350945
0.195823
0.0443606
1.5286
1.60357
1.16417
0.966886
0.813432
0.660536
0.506058
0.350917
0.195661
0.0426618
1.52067
1.59909
1.16932
0.967444
0.813173
0.660398
0.506012
0.350893
0.195503
0.0405517
1.5221
1.59606
1.17191
0.967425
0.812874
0.660271
0.505973
0.350874
0.195366
0.0379175
1.52754
1.59644
1.17213
0.966786
0.812515
0.660151
0.505939
0.350862
0.195316
0.0342119
0
0
0.930225
1.00183
0.825106
0.663991
0.507054
0.351188
0.195547
0.0352301
0
0
0.925219
0.996523
0.824264
0.663826
0.507017
0.351182
0.195593
0.0389424
0
0
0.893645
0.994184
0.823455
0.663646
0.506974
0.35118
0.195726
0.0415862
0
0
0.900523
0.989234
0.822494
0.66344
0.506924
0.351178
0.19588
0.0437056
1.55845
1.77538
0.802545
0.979519
0.821404
0.663212
0.506867
0.351176
0.196035
0.0454122
1.55382
1.81819
0.775509
0.967567
0.820207
0.662965
0.506805
0.351172
0.196181
0.04676
1.5536
1.81306
0.812028
0.958608
0.818968
0.662707
0.506737
0.351166
0.196306
0.0477909
1.56377
1.77987
0.878044
0.95434
0.817803
0.662442
0.506667
0.351156
0.196404
0.0485372
1.58294
1.74136
0.943355
0.953287
0.816792
0.662178
0.506594
0.351143
0.19647
0.049022
1.60547
1.70518
0.998777
0.953819
0.815956
0.661919
0.506519
0.351125
0.196501
0.0492601
1.62401
1.6731
1.04355
0.955245
0.815288
0.661672
0.506445
0.351104
0.196495
0.0492591
1.63204
1.6468
1.07908
0.957224
0.814771
0.661441
0.506372
0.351079
0.196453
0.0490189
1.62833
1.62867
1.10695
0.9595
0.814386
0.661229
0.506302
0.351052
0.196376
0.0485321
1.61278
1.61843
1.12846
0.961811
0.814099
0.661035
0.506236
0.351022
0.196267
0.0477839
1.58674
1.61276
1.14468
0.963908
0.813869
0.660858
0.506173
0.350992
0.196132
0.0467511
1.55728
1.60875
1.15652
0.965609
0.813658
0.660697
0.506116
0.350962
0.195977
0.0454017
1.5328
1.60471
1.16469
0.966803
0.81344
0.660548
0.506064
0.350934
0.195814
0.0436936
1.5197
1.60054
1.16978
0.967427
0.813193
0.660412
0.506018
0.350909
0.195653
0.0415728
1.51898
1.59744
1.17232
0.967443
0.812902
0.660287
0.505979
0.35089
0.195514
0.0389279
1.5242
1.59775
1.1725
0.966816
0.812546
0.660167
0.505945
0.350878
0.195464
0.0352146
0
0
0.930225
1.00183
0.825106
0.663991
0.507054
0.351188
0.195547
0.0352301
0
0
0.925219
0.996523
0.824264
0.663826
0.507017
0.351182
0.195593
0.0389424
0
0
0.893645
0.994184
0.823455
0.663646
0.506974
0.35118
0.195726
0.0415862
0
0
0.900523
0.989234
0.822494
0.66344
0.506924
0.351178
0.19588
0.0437056
1.55845
1.77538
0.802545
0.979519
0.821404
0.663212
0.506867
0.351176
0.196035
0.0454122
1.55382
1.81819
0.775509
0.967567
0.820207
0.662965
0.506805
0.351172
0.196181
0.04676
1.5536
1.81306
0.812028
0.958608
0.818968
0.662707
0.506737
0.351166
0.196306
0.0477909
1.56377
1.77987
0.878044
0.95434
0.817803
0.662442
0.506667
0.351156
0.196404
0.0485372
1.58294
1.74136
0.943355
0.953287
0.816792
0.662178
0.506594
0.351143
0.19647
0.049022
1.60547
1.70518
0.998777
0.953819
0.815956
0.661919
0.506519
0.351125
0.196501
0.0492601
1.62401
1.6731
1.04355
0.955245
0.815288
0.661672
0.506445
0.351104
0.196495
0.0492591
1.63204
1.6468
1.07908
0.957224
0.814771
0.661441
0.506372
0.351079
0.196453
0.0490189
1.62833
1.62867
1.10695
0.9595
0.814386
0.661229
0.506302
0.351052
0.196376
0.0485321
1.61278
1.61843
1.12846
0.961811
0.814099
0.661035
0.506236
0.351022
0.196267
0.0477839
1.58674
1.61276
1.14468
0.963908
0.813869
0.660858
0.506173
0.350992
0.196132
0.0467511
1.55728
1.60875
1.15652
0.965609
0.813658
0.660697
0.506116
0.350962
0.195977
0.0454017
1.5328
1.60471
1.16469
0.966803
0.81344
0.660548
0.506064
0.350934
0.195814
0.0436936
1.5197
1.60054
1.16978
0.967427
0.813193
0.660412
0.506018
0.350909
0.195653
0.0415728
1.51898
1.59744
1.17232
0.967443
0.812902
0.660287
0.505979
0.35089
0.195514
0.0389279
1.5242
1.59775
1.1725
0.966816
0.812546
0.660167
0.505945
0.350878
0.195464
0.0352146
0
0
0.929694
1.00142
0.825074
0.664002
0.507058
0.351174
0.195399
0.0342275
0
0
0.925238
0.996014
0.824225
0.663837
0.50702
0.351168
0.195445
0.0379321
0
0
0.895062
0.993468
0.8234
0.663655
0.506977
0.351166
0.195576
0.0405652
0
0
0.903836
0.988261
0.822416
0.663447
0.506927
0.351164
0.195728
0.0426739
1.56128
1.76554
0.807437
0.978363
0.821301
0.663216
0.506869
0.351161
0.195882
0.0443713
1.55626
1.80687
0.782267
0.966421
0.820082
0.662966
0.506806
0.351157
0.196026
0.0457114
1.55371
1.80043
0.823422
0.957647
0.818831
0.662704
0.506738
0.35115
0.19615
0.0467365
1.55864
1.7674
0.893596
0.953801
0.817678
0.662437
0.506666
0.35114
0.196247
0.0474787
1.57035
1.7312
0.956868
0.953386
0.816723
0.662172
0.506592
0.351126
0.196312
0.0479607
1.58403
1.6988
1.00705
0.954457
0.815964
0.661917
0.506518
0.351109
0.196342
0.0481976
1.59395
1.6708
1.0473
0.956179
0.815361
0.661674
0.506443
0.351087
0.196337
0.0481965
1.59702
1.6481
1.0801
0.958212
0.814879
0.661445
0.50637
0.351062
0.196294
0.0479576
1.59341
1.63157
1.10677
0.960333
0.81449
0.661231
0.506299
0.351035
0.196218
0.0474735
1.583
1.62077
1.12797
0.96239
0.814172
0.661033
0.506232
0.351005
0.19611
0.0467294
1.56585
1.61381
1.14416
0.964258
0.813907
0.660852
0.506169
0.350975
0.195976
0.0457024
1.54549
1.60845
1.15599
0.965798
0.81367
0.660687
0.50611
0.350945
0.195823
0.0443606
1.5286
1.60357
1.16417
0.966886
0.813432
0.660536
0.506058
0.350917
0.195661
0.0426618
1.52067
1.59909
1.16932
0.967444
0.813173
0.660398
0.506012
0.350893
0.195503
0.0405517
1.5221
1.59606
1.17191
0.967425
0.812874
0.660271
0.505973
0.350874
0.195366
0.0379175
1.52754
1.59644
1.17213
0.966786
0.812515
0.660151
0.505939
0.350862
0.195316
0.0342119
0
0
0.925483
1.00099
0.825059
0.664029
0.507065
0.351152
0.195137
0.03213
0
0
0.921223
0.99527
0.824198
0.663864
0.507028
0.351145
0.195179
0.0358037
0
0
0.891565
0.992152
0.82334
0.663679
0.506984
0.351142
0.195307
0.0384043
0
0
0.905073
0.986212
0.822306
0.663467
0.506933
0.351139
0.195453
0.0404853
1.56942
1.75153
0.812762
0.975952
0.82114
0.66323
0.506874
0.351136
0.195603
0.0421607
1.56405
1.7873
0.802096
0.964426
0.819892
0.662974
0.50681
0.351131
0.195743
0.0434842
1.55864
1.77466
0.858053
0.957138
0.81868
0.662708
0.50674
0.351124
0.195864
0.0444973
1.55629
1.74254
0.922191
0.954784
0.817621
0.66244
0.506667
0.351113
0.195959
0.0452311
1.55544
1.71225
0.974628
0.954895
0.816746
0.662175
0.506592
0.351099
0.196023
0.045708
1.55429
1.68647
1.01795
0.955972
0.816033
0.661918
0.506516
0.35108
0.196053
0.0459423
1.55201
1.66511
1.0539
0.957558
0.815449
0.661673
0.50644
0.351058
0.196047
0.0459412
1.54861
1.64767
1.08359
0.959401
0.81497
0.661441
0.506365
0.351033
0.196005
0.0457047
1.54505
1.63362
1.10794
0.961307
0.814573
0.661224
0.506293
0.351005
0.19593
0.0452258
1.54136
1.62252
1.12761
0.963124
0.814236
0.661022
0.506224
0.350976
0.195824
0.04449
1.53688
1.61389
1.14316
0.964726
0.813936
0.660835
0.506159
0.350945
0.195693
0.043475
1.53196
1.60713
1.15493
0.966019
0.813658
0.660663
0.5061
0.350915
0.195543
0.0421497
1.52792
1.60148
1.16322
0.966932
0.813387
0.660507
0.506047
0.350888
0.195386
0.0404728
1.5271
1.59684
1.16849
0.967389
0.813108
0.660366
0.506
0.350864
0.195232
0.0383905
1.53101
1.59414
1.17121
0.967321
0.812799
0.660239
0.505961
0.350846
0.195099
0.0357888
1.5365
1.59469
1.17151
0.966666
0.812437
0.660118
0.505927
0.350834
0.195052
0.0321141
0
0
0.915343
1.00194
0.825143
0.664078
0.507077
0.35113
0.194832
0.0287858
0
0
0.912142
0.995252
0.824287
0.663917
0.507041
0.351123
0.194866
0.0323118
0
0
0.875778
0.991009
0.823388
0.663732
0.506997
0.351119
0.194983
0.034825
0
0
0.887738
0.983432
0.822283
0.663514
0.506945
0.351115
0.195119
0.0368484
1.58572
1.75273
0.825716
0.972871
0.821076
0.66327
0.506885
0.35111
0.195261
0.038486
1.58097
1.76162
0.850952
0.963652
0.81985
0.663007
0.506818
0.351104
0.195396
0.0397841
1.57317
1.7374
0.901478
0.959314
0.818715
0.662735
0.506747
0.351096
0.195513
0.0407802
1.56316
1.71271
0.94901
0.957592
0.81771
0.662459
0.506671
0.351084
0.195605
0.041503
1.55172
1.6909
0.992038
0.957186
0.816845
0.662187
0.506593
0.351069
0.195667
0.0419733
1.54035
1.67191
1.02921
0.957683
0.816112
0.661921
0.506514
0.35105
0.195696
0.0422045
1.53118
1.65538
1.06085
0.958783
0.815498
0.661667
0.506435
0.351027
0.19569
0.0422034
1.52479
1.64117
1.08752
0.960233
0.814985
0.661426
0.506358
0.351002
0.195649
0.0419699
1.52139
1.62912
1.10974
0.961828
0.814554
0.6612
0.506283
0.350973
0.195575
0.0414975
1.52106
1.61905
1.12795
0.963398
0.814183
0.66099
0.506212
0.350943
0.195471
0.0407727
1.52397
1.61077
1.14252
0.964806
0.813855
0.660795
0.506145
0.350913
0.195344
0.0397746
1.52976
1.60402
1.15378
0.965946
0.81355
0.660617
0.506084
0.350883
0.1952
0.0384747
1.5366
1.5987
1.16203
0.966733
0.813254
0.660456
0.50603
0.350856
0.19505
0.0368355
1.54322
1.59495
1.16751
0.967109
0.812957
0.660312
0.505983
0.350833
0.194906
0.0348107
1.54898
1.59311
1.17044
0.967016
0.812644
0.660184
0.505943
0.350816
0.194784
0.0322964
1.55329
1.59396
1.17087
0.966382
0.812292
0.660067
0.505911
0.350805
0.194746
0.0287695
0
0
0.906357
1.00576
0.825372
0.664142
0.507092
0.351118
0.194632
0.0242629
0
0
0.904796
0.998024
0.824717
0.664011
0.507061
0.351113
0.19466
0.0268485
0
0
0.867113
0.993459
0.823788
0.663828
0.507018
0.351108
0.194748
0.0292245
0
0
0.855954
0.983182
0.822687
0.663605
0.506965
0.351104
0.19487
0.0312049
1.60213
1.73851
0.86533
0.973913
0.821453
0.663352
0.506902
0.351098
0.195003
0.0328138
1.59811
1.72882
0.894739
0.966864
0.820197
0.663078
0.506833
0.351091
0.195132
0.034093
1.58977
1.71411
0.930241
0.962206
0.819001
0.662791
0.506758
0.351081
0.195246
0.0350767
1.57791
1.69732
0.968518
0.959542
0.817918
0.6625
0.506679
0.351068
0.195336
0.0357915
1.56541
1.68041
1.00449
0.958411
0.816973
0.662211
0.506597
0.351051
0.195397
0.036257
1.55426
1.6645
1.03691
0.958379
0.816166
0.66193
0.506514
0.351031
0.195425
0.036486
1.54526
1.6501
1.06542
0.959093
0.815487
0.66166
0.506432
0.351008
0.195418
0.0364848
1.53887
1.63742
1.09002
0.960264
0.814918
0.661404
0.506351
0.350981
0.195378
0.0362535
1.53561
1.62648
1.11087
0.961656
0.814439
0.661164
0.506272
0.350952
0.195305
0.0357857
1.53557
1.61727
1.12817
0.96308
0.814028
0.660941
0.506198
0.350922
0.195203
0.0350687
1.53855
1.60973
1.1422
0.964383
0.813666
0.660736
0.506129
0.350891
0.195078
0.034083
1.54431
1.60382
1.15317
0.965447
0.813335
0.66055
0.506065
0.350862
0.19494
0.0328019
1.55233
1.59951
1.16133
0.966181
0.813017
0.660381
0.506009
0.350835
0.194798
0.0311913
1.56076
1.59676
1.16687
0.96652
0.812703
0.660232
0.505961
0.350813
0.194669
0.0292096
1.56688
1.59561
1.16999
0.966446
0.812393
0.660106
0.505922
0.350796
0.194576
0.0268324
1.56984
1.5958
1.17067
0.965988
0.812109
0.660009
0.505894
0.350786
0.194544
0.024246

VECTORS velocity float
0 0 0
0 0 0
0.791985 -0.0326705 -0.000565901
0.687131 -0.00316571 0.00074932
0.722173 -0.000757991 8.98354e-05
0.730889 -0.000167792 1.84063e-05
0.732834 -3.78977e-05 3.94815e-06
0.733302 -9.86561e-06 -1.92987e-06
0.733744 -1.51265e-05 -3.65332e-05
0.749262 -0.00106285 -0.000911172
0 0 0
0 0 0
-0.143743 -0.0970167 -0.000320016
0.698047 -0.0127417 0.000584406
0.768201 -0.00246761 0.000108701
0.779029 -0.000532408 2.27154e-05
0.781301 -0.000119969 4.85776e-06
0.781842 -3.11824e-05 -1.83282e-06
0.782409 -5.48533e-05 -3.93781e-05
0.787459 -0.00205309 -0.00106681
0 0 0
0 0 0
0.811652 -0.164134 0.000965611
0.731739 -0.0226421 0.000502051
0.772239 -0.00427783 9.53349e-05
0.782135 -0.000918827 2.18399e-05
0.784326 -0.000207008 4.7691e-06
0.78485 -5.35079e-05 -1.94977e-06
0.785336 -9.52524e-05 -4.20309e-05
0.789525 -0.00181665 -0.00109188
0 0 0
0 0 0
-0.129079 -0.233163 0.000649761
0.715343 -0.031194 0.000135551
0.773082 -0.00595711 8.1614e-05
0.782529 -0.00128333 2.008e-05
0.784552 -0.000289497 4.42267e-06
0.785034 -7.41022e-05 -2.12506e-06
0.785435 -0.000118407 -4.38467e-05
0.789718 -0.00150017 -0.00110343
0.431581 -0.0182332 -0.0395034
0.86728 0.00607287 -0.0233839
0.818311 -0.261882 0.011236
0.740972 -0.0394458 0.000876719
0.774939 -0.00746784 9.00606e-05
0.78284 -0.00161236 1.80802e-05
0.784624 -0.000364368 3.92078e-06
0.785051 -9.20994e-05 -2.32097e-06
0.785378 -0.000126641 -4.48601e-05
0.789797 -0.00121113 -0.00110989
0.503714 -0.0489844 -0.0466499
0.977264 0.0111298 -0.020992
0.919696 -0.246398 0.0133054
0.759456 -0.0444917 0.00122214
0.776946 -0.00870673 8.94016e-05
0.783203 -0.00189579 1.54141e-05
0.784702 -0.00042955 3.28486e-06
0.785064 -0.000107012 -2.53574e-06
0.785329 -0.00012342 -4.55051e-05
0.789858 -0.00095197 -0.0011139
0.548732 -0.0672937 -0.053076
0.979748 0.0077846 -0.0168863
0.927564 -0.223899 0.00821553
0.77151 -0.0471818 0.000897437
0.779013 -0.00965516 6.96308e-05
0.783613 -0.00212637 1.20212e-05
0.784791 -0.000483345 2.5465e-06
0.78508 -0.000118517 -2.75988e-06
0.785293 -0.000111452 -4.59271e-05
0.789906 -0.000717164 -0.00111642
0.586602 -0.0730218 -0.0589994
0.974274 0.00333481 -0.0144204
0.925824 -0.200147 0.00461298
0.781492 -0.0480427 0.000568475
0.781155 -0.0103026 4.82604e-05
0.784059 -0.00229859 8.41206e-06
0.78489 -0.0005244 1.74174e-06
0.785099 -0.000126428 -2.98686e-06
0.785269 -9.29479e-05 -4.62072e-05
0.789941 -0.000500946 -0.00111797
0.617389 -0.0680568 -0.0641464
0.969103 -0.000200222 -0.0131708
0.923559 -0.176983 0.00251949
0.790239 -0.0474591 0.000334725
0.78331 -0.0106492 2.78383e-05
0.784529 -0.00240888 4.74136e-06
0.784995 -0.000551728 8.98766e-07
0.78512 -0.000130683 -3.21115e-06
0.785255 -6.97707e-05 -4.63905e-05
0.789966 -0.000297746 -0.00111888
0.64092 -0.054511 -0.0683217
0.964565 -0.0021717 -0.0125817
0.921436 -0.155125 0.00119464
0.797859 -0.0457374 0.000171048
0.785415 -0.0107054 9.75177e-06
0.785007 -0.00245559 1.1449e-06