# vtk DataFile Version 2.0
TestTestTest
ASCII

DATASET STRUCTURED_GRID
DIMENSIONS 11 21 11
POINTS 2541 float
0 0 0
0.5 0 0
1 0 0
1.5 0 0
2 0 0
2.5 0 0
3 0 0
3.5 0 0
4 0 0
4.5 0 0
5 0 0
0 0.05 0
0.5 0.05 0
1 0.05 0
1.5 0.05 0
2 0.05 0
2.5 0.05 0
3 0.05 0
3.5 0.05 0
4 0.05 0
4.5 0.05 0
5 0.05 0
0 0.1 0
0.5 0.1 0
1 0.1 0
1.5 0.1 0
2 0.1 0
2.5 0.1 0
3 0.1 0
3.5 0.1 0
4 0.1 0
4.5 0.1 0
5 0.1 0
0 0.15 0
0.5 0.15 0
1 0.15 0
1.5 0.15 0
2 0.15 0
2.5 0.15 0
3 0.15 0
3.5 0.15 0
4 0.15 0
4.5 0.15 0
5 0.15 0
0 0.2 0
0.5 0.2 0
1 0.2 0
1.5 0.2 0
2 0.2 0
2.5 0.2 0
3 0.2 0
3.5 0.2 0
4 0.2 0
4.5 0.2 0
5 0.2 0
0 0.25 0
0.5 0.25 0
1 0.25 0
1.5 0.25 0
2 0.25 0
2.5 0.25 0
3 0.25 0
3.5 0.25 0
4 0.25 0
4.5 0.25 0
5 0.25 0
0 0.3 0
0.5 0.3 0
1 0.3 0
1.5 0.3 0
2 0.3 0
2.5 0.3 0
3 0.3 0
3.5 0.3 0
4 0.3 0
4.5 0.3 0
5 0.3 0
0 0.35 0
0.5 0.35 0
1 0.35 0
1.5 0.35 0
2 0.35 0
2.5 0.35 0
3 0.35 0
3.5 0.35 0
4 0.35 0
4.5 0.35 0
5 0.35 0
0 0.4 0
0.5 0.4 0
1 0.4 0
1.5 0.4 0
2 0.4 0
2.5 0.4 0
3 0.4 0
3.5 0.4 0
4 0.4 0
4.5 0.4 0
5 0.4 0
0 0.45 0
0.5 0.45 0
1 0.45 0
1.5 0.45 0
2 0.45 0
2.5 0.45 0
3 0.45 0
3.5 0.45 0
4 0.45 0
4.5 0.45 0
5 0.45 0
0 0.5 0
0.5 0.5 0
1 0.5 0
1.5 0.5 0
2 0.5 0
2.5 0.5 0
3 0.5 0
3.5 0.5 0
4 0.5 0
4.5 0.5 0
5 0.5 0
0 0.55 0
0.5 0.55 0
1 0.55 0
1.5 0.55 0
2 0.55 0
2.5 0.55 0
3 0.55 0
3.5 0.55 0
4 0.55 0
4.5 0.55 0
5 0.55 0
0 0.6 0
0.5 0.6 0
1 0.6 0
1.5 0.6 0
2 0.6 0
2.5 0.6 0
3 0.6 0
3.5 0.6 0
4 0.6 0
4.5 0.6 0
5 0.6 0
0 0.65 0
0.5 0.65 0
1 0.65 0
1.5 0.65 0
2 0.65 0
2.5 0.65 0
3 0.65 0
3.5 0.65 0
4 0.65 0
4.5 0.65 0
5 0.65 0
0 0.7 0
0.5 0.7 0
1 0.7 0
1.5 0.7 0
2 0.7 0
2.5 0.7 0
3 0.7 0
3.5 0.7 0
4 0.7 0
4.5 0.7 0
5 0.7 0
0 0.75 0
0.5 0.75 0
1 0.75 0
1.5 0.75 0
2 0.75 0
2.5 0.75 0
3 0.75 0
3.5 0.75 0
4 0.75 0
4.5 0.75 0
5 0.75 0
0 0.8 0
0.5 0.8 0
1 0.8 0
1.5 0.8 0
2 0.8 0
2.5 0.8 0
3 0.8 0
3.5 0.8 0
4 0.8 0
4.5 0.8 0
5 0.8 0
0 0.85 0
0.5 0.85 0
1 0.85 0
1.5 0.85 0
2 0.85 0
2.5 0.85 0
3 0.85 0
3.5 0.85 0
4 0.85 0
4.5 0.85 0
5 0.85 0
0 0.9 0
0.5 0.9 0
1 0.9 0
1.5 0.9 0
2 0.9 0
2.5 0.9 0
3 0.9 0
3.5 0.9 0
4 0.9 0
4.5 0.9 0
5 0.9 0
0 0.95 0
0.5 0.95 0
1 0.95 0
1.5 0.95 0
2 0.95 0
2.5 0.95 0
3 0.95 0
3.5 0.95 0
4 0.95 0
4.5 0.95 0
5 0.95 0
0 1 0
0.5 1 0
1 1 0
1.5 1 0
2 1 0
2.5 1 0
3 1 0
3.5 1 0
4 1 0
4.5 1 0
5 1 0
0 0 0.1
0.5 0 0.1
1 0 0.1
1.5 0 0.1
2 0 0.1
2.5 0 0.1
3 0 0.1
3.5 0 0.1
4 0 0.1
4.5 0 0.1
5 0 0.1
0 0.05 0.1
0.5 0.05 0.1
1 0.05 0.1
1.5 0.05 0.1
2 0.05 0.1
2.5 0.05 0.1
3 0.05 0.1
3.5 0.05 0.1
4 0.05 0.1
4.5 0.05 0.1
5 0.05 0.1
0 0.1 0.1
0.5 0.1 0.1
1 0.1 0.1
1.5 0.1 0.1
2 0.1 0.1
2.5 0.1 0.1
3 0.1 0.1
3.5 0.1 0.1
4 0.1 0.1
4.5 0.1 0.1
5 0.1 0.1
0 0.15 0.1
0.5 0.15 0.1
1 0.15 0.1
1.5 0.15 0.1
2 0.15 0.1
2.5 0.15 0.1
3 0.15 0.1
3.5 0.15 0.1
4 0.15 0.1
4.5 0.15 0.1
5 0.15 0.1
0 0.2 0.1
0.5 0.2 0.1
1 0.2 0.1
1.5 0.2 0.1
2 0.2 0.1
2.5 0.2 0.1
3 0.2 0.1
3.5 0.2 0.1
4 0.2 0.1
4.5 0.2 0.1
5 0.2 0.1
0 0.25 0.1
0.5 0.25 0.1
1 0.25 0.1
1.5 0.25 0.1
2 0.25 0.1
2.5 0.25 0.1
3 0.25 0.1
3.5 0.25 0.1
4 0.25 0.1
4.5 0.25 0.1
5 0.25 0.1
0 0.3 0.1
0.5 0.3 0.1
1 0.3 0.1
1.5 0.3 0.1
2 0.3 0.1
2.5 0.3 0.1
3 0.3 0.1
3.5 0.3 0.1
4 0.3 0.1
4.5 0.3 0.1
5 0.3 0.1
0 0.35 0.1
0.5 0.35 0.1
1 0.35 0.1
1.5 0.35 0.1
2 0.35 0.1
2.5 0.35 0.1
3 0.35 0.1
3.5 0.35 0.1
4 0.35 0.1
4.5 0.35 0.1
5 0.35 0.1
0 0.4 0.1
0.5 0.4 0.1
1 0.4 0.1
1.5 0.4 0.1
2 0.4 0.1
2.5 0.4 0.1
3 0.4 0.1
3.5 0.4 0.1
4 0.4 0.1
4.5 0.4 0.1
5 0.4 0.1
0 0.45 0.1
0.5 0.45 0.1
1 0.45 0.1
1.5 0.45 0.1
2 0.45 0.1
2.5 0.45 0.1
3 0.45 0.1
3.5 0.45 0.1
4 0.45 0.1
4.5 0.45 0.1
5 0.45 0.1
0 0.5 0.1
0.5 0.5 0.1
1 0.5 0.1
1.5 0.5 0.1
2 0.5 0.1
2.5 0.5 0.1
3 0.5 0.1
3.5 0.5 0.1
4 0.5 0.1
4.5 0.5 0.1
5 0.5 0.1
0 0.55 0.1
0.5 0.55 0.1
1 0.55 0.1
1.5 0.55 0.1
2 0.55 0.1
2.5 0.55 0.1
3 0.55 0.1
3.5 0.55 0.1
4 0.55 0.1
4.5 0.55 0.1
5 0.55 0.1
0 0.6 0.1
0.5 0.6 0.1
1 0.6 0.1
1.5 0.6 0.1
2 0.6 0.1
2.5 0.6 0.1
3 0.6 0.1
3.5 0.6 0.1
4 0.6 0.1
4.5 0.6 0.1
5 0.6 0.1
0 0.65 0.1
0.5 0.65 0.1
1 0.65 0.1
1.5 0.65 0.1
2 0.65 0.1
2.5 0.65 0.1
3 0.65 0.1
3.5 0.65 0.1
4 0.65 0.1
4.5 0.65 0.1
5 0.65 0.1
0 0.7 0.1
0.5 0.7 0.1
1 0.7 0.1
1.5 0.7 0.1
2 0.7 0.1
2.5 0.7 0.1
3 0.7 0.1
3.5 0.7 0.1
4 0.7 0.1
4.5 0.7 0.1
5 0.7 0.1
0 0.75 0.1
0.5 0.75 0.1
1 0.75 0.1
1.5 0.75 0.1
2 0.75 0.1
2.5 0.75 0.1
3 0.75 0.1
3.5 0.75 0.1
4 0.75 0.1
4.5 0.75 0.1
5 0.75 0.1
0 0.8 0.1
0.5 0.8 0.1
1 0.8 0.1
1.5 0.8 0.1
2 0.8 0.1
2.5 0.8 0.1
3 0.8 0.1
3.5 0.8 0.1
4 0.8 0.1
4.5 0.8 0.1
5 0.8 0.1
0 0.85 0.1
0.5 0.85 0.1
1 0.85 0.1
1.5 0.85 0.1
2 0.85 0.1
2.5 0.85 0.1
3 0.85 0.1
3.5 0.85 0.1
4 0.85 0.1
4.5 0.85 0.1
5 0.85 0.1
0 0.9 0.1
0.5 0.9 0.1
1 0.9 0.1
1.5 0.9 0.1
2 0.9 0.1
2.5 0.9 0.1
3 0.9 0.1
3.5 0.9 0.1
4 0.9 0.1
4.5 0.9 0.1
5 0.9 0.1
0 0.95 0.1
0.5 0.95 0.1
1 0.95 0.1
1.5 0.95 0.1
2 0.95 0.1
2.5 0.95 0.1
3 0.95 0.1
3.5 0.95 0.1
4 0.95 0.1
4.5 0.95 0.1
5 0.95 0.1
0 1 0.1
0.5 1 0.1
1 1 0.1
1.5 1 0.1
2 1 0.1
2.5 1 0.1
3 1 0.1
3.5 1 0.1
4 1 0.1
4.5 1 0.1
5 1 0.1
0 0 0.2
0.5 0 0.2
1 0 0.2
1.5 0 0.2
2 0 0.2
2.5 0 0.2
3 0 0.2
3.5 0 0.2
4 0 0.2
4.5 0 0.2
5 0 0.2
0 0.05 0.2
0.5 0.05 0.2
1 0.05 0.2
1.5 0.05 0.2
2 0.05 0.2
2.5 0.05 0.2
3 0.05 0.2
3.5 0.05 0.2
4 0.05 0.2
4.5 0.05 0.2
5 0.05 0.2
0 0.1 0.2
0.5 0.1 0.2
1 0.1 0.2
1.5 0.1 0.2
2 0.1 0.2
2.5 0.1 0.2
3 0.1 0.2
3.5 0.1 0.2
4 0.1 0.2
4.5 0.1 0.2
5 0.1 0.2
0 0.15 0.2
0.5 0.15 0.2
1 0.15 0.2
1.5 0.15 0.2
2 0.15 0.2
2.5 0.15 0.2
3 0.15 0.2
3.5 0.15 0.2
4 0.15 0.2
4.5 0.15 0.2
5 0.15 0.2
0 0.2 0.2
0.5 0.2 0.2
1 0.2 0.2
1.5 0.2 0.2
2 0.2 0.2
2.5 0.2 0.2
3 0.2 0.2
3.5 0.2 0.2
4 0.2 0.2
4.5 0.2 0.2
5 0.2 0.2
0 0.25 0.2
0.5 0.25 0.2
1 0.25 0.2
1.5 0.25 0.2
2 0.25 0.2
2.5 0.25 0.2
3 0.25 0.2
3.5 0.25 0.2
4 0.25 0.2
4.5 0.25 0.2
5 0.25 0.2
0 0.3 0.2
0.5 0.3 0.2
1 0.3 0.2
1.5 0.3 0.2
2 0.3 0.2
2.5 0.3 0.2
3 0.3 0.2
3.5 0.3 0.2
4 0.3 0.2
4.5 0.3 0.2
5 0.3 0.2
0 0.35 0.2
0.5 0.35 0.2
1 0.35 0.2
1.5 0.35 0.2
2 0.35 0.2
2.5 0.35 0.2
3 0.35 0.2
3.5 0.35 0.2
4 0.35 0.2
4.5 0.35 0.2
5 0.35 0.2
0 0.4 0.2
0.5 0.4 0.2
1 0.4 0.2
1.5 0.4 0.2
2 0.4 0.2
2.5 0.4 0.2
3 0.4 0.2
3.5 0.4 0.2
4 0.4 0.2
4.5 0.4 0.2
5 0.4 0.2
0 0.45 0.2
0.5 0.45 0.2
1 0.45 0.2
1.5 0.45 0.2
2 0.45 0.2
2.5 0.45 0.2
3 0.45 0.2
3.5 0.45 0.2
4 0.45 0.2
4.5 0.45 0.2
5 0.45 0.2
0 0.5 0.2
0.5 0.5 0.2
1 0.5 0.2
1.5 0.5 0.2
2 0.5 0.2
2.5 0.5 0.2
3 0.5 0.2
3.5 0.5 0.2
4 0.5 0.2
4.5 0.5 0.2
5 0.5 0.2
0 0.55 0.2
0.5 0.55 0.2
1 0.55 0.2
1.5 0.55 0.2
2 0.55 0.2
2.5 0.55 0.2
3 0.55 0.2
3.5 0.55 0.2
4 0.55 0.2
4.5 0.55 0.2
5 0.55 0.2
0 0.6 0.2
0.5 0.6 0.2
1 0.6 0.2
1.5 0.6 0.2
2 0.6 0.2
2.5 0.6 0.2
3 0.6 0.2
3.5 0.6 0.2
4 0.6 0.2
4.5 0.6 0.2
5 0.6 0.2
0 0.65 0.2
0.5 0.65 0.2
1 0.65 0.2
1.5 0.65 0.2
2 0.65 0.2
2.5 0.65 0.2
3 0.65 0.2
3.5 0.65 0.2
4 0.65 0.2
4.5 0.65 0.2
5 0.65 0.2
0 0.7 0.2
0.5 0.7 0.2
1 0.7 0.2
1.5 0.7 0.2
2 0.7 0.2
2.5 0.7 0.2
3 0.7 0.2
3.5 0.7 0.2
4 0.7 0.2
4.5 0.7 0.2
5 0.7 0.2
0 0.75 0.2
0.5 0.75 0.2
1 0.75 0.2
1.5 0.75 0.2
2 0.75 0.2
2.5 0.75 0.2
3 0.75 0.2
3.5 0.75 0.2
4 0.75 0.2
4.5 0.75 0.2
5 0.75 0.2
0 0.8 0.2
0.5 0.8 0.2
1 0.8 0.2
1.5 0.8 0.2
2 0.8 0.2
2.5 0.8 0.2
3 0.8 0.2
3.5 0.8 0.2
4 0.8 0.2
4.5 0.8 0.2
5 0.8 0.2
0 0.85 0.2
0.5 0.85 0.2
1 0.85 0.2
1.5 0.85 0.2
2 0.85 0.2
2.5 0.85 0.2
3 0.85 0.2
3.5 0.85 0.2
4 0.85 0.2
4.5 0.85 0.2
5 0.85 0.2
0 0.9 0.2
0.5 0.9 0.2
1 0.9 0.2
1.5 0.9 0.2
2 0.9 0.2
2.5 0.9 0.2
3 0.9 0.2
3.5 0.9 0.2
4 0.9 0.2
4.5 0.9 0.2
5 0.9 0.2
0 0.95 0.2
0.5 0.95 0.2
1 0.95 0.2
1.5 0.95 0.2
2 0.95 0.2
2.5 0.95 0.2
3 0.95 0.2
3.5 0.95 0.2
4 0.95 0.2
4.5 0.95 0.2
5 0.95 0.2
0 1 0.2
0.5 1 0.2
1 1 0.2
1.5 1 0.2
2 1 0.2
2.5 1 0.2
3 1 0.2
3.5 1 0.2
4 1 0.2
4.5 1 0.2
5 1 0.2
0 0 0.3
0.5 0 0.3
1 0 0.3
1.5 0 0.3
2 0 0.3
2.5 0 0.3
3 0 0.3
3.5 0 0.3
4 0 0.3
4.5 0 0.3
5 0 0.3
0 0.05 0.3
0.5 0.05 0.3
1 0.05 0.3
1.5 0.05 0.3
2 0.05 0.3
2.5 0.05 0.3
3 0.05 0.3
3.5 0.05 0.3
4 0.05 0.3
4.5 0.05 0.3
5 0.05 0.3
0 0.1 0.3
0.5 0.1 0.3
1 0.1 0.3
1.5 0.1 0.3
2 0.1 0.3
2.5 0.1 0.3
3 0.1 0.3
3.5 0.1 0.3
4 0.1 0.3
4.5 0.1 0.3
5 0.1 0.3
0 0.15 0.3
0.5 0.15 0.3
1 0.15 0.3
1.5 0.15 0.3
2 0.15 0.3
2.5 0.15 0.3
3 0.15 0.3
3.5 0.15 0.3
4 0.15 0.3
4.5 0.15 0.3
5 0.15 0.3
0 0.2 0.3
0.5 0.2 0.3
1 0.2 0.3
1.5 0.2 0.3
2 0.2 0.3
2.5 0.2 0.3
3 0.2 0.3
3.5 0.2 0.3
4 0.2 0.3
4.5 0.2 0.3
5 0.2 0.3
0 0.25 0.3
0.5 0.25 0.3
1 0.25 0.3
1.5 0.25 0.3
2 0.25 0.3
2.5 0.25 0.3
3 0.25 0.3
3.5 0.25 0.3
4 0.25 0.3
4.5 0.25 0.3
5 0.25 0.3
0 0.3 0.3
0.5 0.3 0.3
1 0.3 0.3
1.5 0.3 0.3
2 0.3 0.3
2.5 0.3 0.3
3 0.3 0.3
3.5 0.3 0.3
4 0.3 0.3
4.5 0.3 0.3
5 0.3 0.3
0 0.35 0.3
0.5 0.35 0.3
1 0.35 0.3
1.5 0.35 0.3
2 0.35 0.3
2.5 0.35 0.3
3 0.35 0.3
3.5 0.35 0.3
4 0.35 0.3
4.5 0.35 0.3
5 0.35 0.3
0 0.4 0.3
0.5 0.4 0.3
1 0.4 0.3
1.5 0.4 0.3
2 0.4 0.3
2.5 0.4 0.3
3 0.4 0.3
3.5 0.4 0.3
4 0.4 0.3
4.5 0.4 0.3
5 0.4 0.3
0 0.45 0.3
0.5 0.45 0.3
1 0.45 0.3
1.5 0.45 0.3
2 0.45 0.3
2.5 0.45 0.3
3 0.45 0.3
3.5 0.45 0.3
4 0.45 0.3
4.5 0.45 0.3
5 0.45 0.3
0 0.5 0.3
0.5 0.5 0.3
1 0.5 0.3
1.5 0.5 0.3
2 0.5 0.3
2.5 0.5 0.3
3 0.5 0.3
3.5 0.5 0.3
4 0.5 0.3
4.5 0.5 0.3
5 0.5 0.3
0 0.55 0.3
0.5 0.55 0.3
1 0.55 0.3
1.5 0.55 0.3
2 0.55 0.3
2.5 0.55 0.3
3 0.55 0.3
3.5 0.55 0.3
4 0.55 0.3
4.5 0.55 0.3
5 0.55 0.3
0 0.6 0.3
0.5 0.6 0.3
1 0.6 0.3
1.5 0.6 0.3
2 0.6 0.3
2.5 0.6 0.3
3 0.6 0.3
3.5 0.6 0.3
4 0.6 0.3
4.5 0.6 0.3
5 0.6 0.3
0 0.65 0.3
0.5 0.65 0.3
1 0.65 0.3
1.5 0.65 0.3
2 0.65 0.3
2.5 0.65 0.3
3 0.65 0.3
3.5 0.65 0.3
4 0.65 0.3
4.5 0.65 0.3
5 0.65 0.3
0 0.7 0.3
0.5 0.7 0.3
1 0.7 0.3
1.5 0.7 0.3
2 0.7 0.3
2.5 0.7 0.3
3 0.7 0.3
3.5 0.7 0.3
4 0.7 0.3
4.5 0.7 0.3
5 0.7 0.3
0 0.75 0.3
0.5 0.75 0.3
1 0.75 0.3
1.5 0.75 0.3
2 0.75 0.3
2.5 0.75 0.3
3 0.75 0.3
3.5 0.75 0.3
4 0.75 0.3
4.5 0.75 0.3
5 0.75 0.3
0 0.8 0.3
0.5 0.8 0.3
1 0.8 0.3
1.5 0.8 0.3
2 0.8 0.3
2.5 0.8 0.3
3 0.8 0.3
3.5 0.8 0.3
4 0.8 0.3
4.5 0.8 0.3
5 0.8 0.3
0 0.85 0.3
0.5 0.85 0.3
1 0.85 0.3
1.5 0.85 0.3
2 0.85 0.3
2.5 0.85 0.3
3 0.85 0.3
3.5 0.85 0.3
4 0.85 0.3
4.5 0.85 0.3
5 0.85 0.3
0 0.9 0.3
0.5 0.9 0.3
1 0.9 0.3
1.5 0.9 0.3
2 0.9 0.3
2.5 0.9 0.3
3 0.9 0.3
3.5 0.9 0.3
4 0.9 0.3
4.5 0.9 0.3
5 0.9 0.3
0 0.95 0.3
0.5 0.95 0.3
1 0.95 0.3
1.5 0.95 0.3
2 0.95 0.3
2.5 0.95 0.3
3 0.95 0.3
3.5 0.95 0.3
4 0.95 0.3
4.5 0.95 0.3
5 0.95 0.3
0 1 0.3
0.5 1 0.3
1 1 0.3
1.5 1 0.3
2 1 0.3
2.5 1 0.3
3 1 0.3
3.5 1 0.3
4 1 0.3
4.5 1 0.3
5 1 0.3
0 0 0.4
[...]
CELL_DATA 2000
SCALARS pressure float 1
LOOKUP_TABLE default
0
0
0.90453
0.994826
0.81547
0.655784
0.500644
0.34668
0.192249
0.0241775
0
0
0.902529
0.987236
0.81482
0.655653
0.500613
0.346675
0.19227
0.0266554
0
0
0.865798
0.982744
0.813877
0.655463
0.500568
0.34667
0.192352
0.028973
0
0
0.853675
0.972664
0.812744
0.655229
0.500512
0.346664
0.192469
0.0309112
1.53269
1.66596
0.861314
0.963424
0.811453
0.654961
0.500446
0.346657
0.192598
0.032485
1.52912
1.65876
0.887651
0.956098
0.810117
0.654667
0.500372
0.346648
0.192724
0.0337357
1.52138
1.64715
0.9197
0.950994
0.808822
0.654357
0.500292
0.346637
0.192835
0.0346971
1.51024
1.63328
0.955213
0.947827
0.807627
0.654041
0.500207
0.346622
0.192922
0.0353955
1.49848
1.61893
0.988883
0.946187
0.806564
0.653725
0.500119
0.346605
0.192981
0.0358502
1.48808
1.6052
1.01932
0.945653
0.805636
0.653416
0.50003
0.346583
0.193008
0.0360738
1.47974
1.59265
1.04615
0.945886
0.804837
0.653118
0.499941
0.346558
0.193002
0.0360726
1.47393
1.58153
1.06934
0.946606
0.804151
0.652834
0.499853
0.34653
0.192962
0.0358465
1.4711
1.57191
1.089
0.947587
0.803562
0.652568
0.499769
0.3465
0.19289
0.0353894
1.47135
1.5638
1.10534
0.948642
0.80305
0.65232
0.499689
0.346469
0.19279
0.0346888
1.47449
1.55718
1.11857
0.949623
0.802597
0.652093
0.499614
0.346437
0.192668
0.0337253
1.48032
1.55199
1.12892
0.950415
0.802186
0.651886
0.499547
0.346407
0.192532
0.0324727
1.48832
1.54822
1.13659
0.950928
0.801804
0.651702
0.499487
0.34638
0.192395
0.0308971
1.49668
1.54579
1.14177
0.9511
0.80144
0.651541
0.499436
0.346357
0.19227
0.0289575
1.50267
1.54479
1.14468
0.95092
0.801097
0.651406
0.499395
0.34634
0.192182
0.0266387
1.50545
1.54496
1.14526
0.950427
0.800804
0.651308
0.499367
0.346331
0.192157
0.0241601
0
0
0.913919
0.991355
0.815299
0.655729
0.50063
0.346692
0.192442
0.0285798
0
0
0.910186
0.984712
0.814418
0.655563
0.500593
0.346684
0.192462
0.0320751
0
0
0.875082
0.980486
0.813496
0.65537
0.500548
0.346679
0.192578
0.0345471
0
0
0.884918
0.973114
0.812346
0.655139
0.500493
0.346674
0.192712
0.0365239
1.51676
1.67398
0.827293
0.962757
0.811077
0.654879
0.500429
0.346669
0.192851
0.0381244
1.51251
1.68644
0.847312
0.953197
0.809767
0.654597
0.500358
0.346661
0.192983
0.0393931
1.50539
1.66807
0.893009
0.948181
0.808531
0.654302
0.500281
0.346651
0.193097
0.0403667
1.49619
1.64713
0.936661
0.945877
0.807414
0.654001
0.500199
0.346638
0.193187
0.041073
1.48572
1.62821
0.976769
0.944933
0.806431
0.653701
0.500115
0.346622
0.193247
0.0415324
1.47539
1.61147
1.01171
0.944915
0.805577
0.653408
0.50003
0.346601
0.193275
0.0417583
1.46715
1.59676
1.04155
0.945529
0.804842
0.653125
0.499944
0.346577
0.193269
0.0417571
1.46146
1.58409
1.06675
0.946528
0.804212
0.652856
0.499861
0.34655
0.193228
0.0415289
1.45849
1.57339
1.08777
0.947713
0.80367
0.652603
0.49978
0.34652
0.193155
0.0410672
1.45831
1.56456
1.10501
0.948916
0.803198
0.652368
0.499703
0.346489
0.193054
0.0403587
1.46111
1.5574
1.1188
0.950006
0.802778
0.652151
0.499631
0.346458
0.192928
0.0393832
1.46667
1.55161
1.12945
0.950875
0.802395
0.651953
0.499565
0.346428
0.192787
0.0381126
1.47329
1.54704
1.13722
0.951445
0.802033
0.651775
0.499507
0.3464
0.192639
0.0365105
1.47978
1.54377
1.14235
0.951658
0.801686
0.651619
0.499457
0.346377
0.192498
0.0345323
1.48539
1.54221
1.14507
0.951454
0.801339
0.651482
0.499416
0.346359
0.192377
0.0320591
1.48955
1.54321
1.1454
0.95077
0.800971
0.651361
0.499382
0.346349
0.192352
0.0285629
0
0
0.924508
0.990859
0.815268
0.655685
0.500619
0.346713
0.192743
0.0318785
0
0
0.919883
0.985143
0.814376
0.655514
0.50058
0.346706
0.192773
0.0355389
0
0
0.89102
0.982014
0.81349
0.655321
0.500535
0.346702
0.1929
0.0381063
0
0
0.902525
0.976236
0.81241
0.655096
0.500481
0.346699
0.193046
0.0401444
1.50076
1.67022
0.816944
0.966224
0.811184
0.654842
0.500418
0.346694
0.193194
0.0417845
1.49598
1.70653
0.803797
0.954535
0.809851
0.654566
0.500349
0.346688
0.193332
0.0430797
1.49136
1.70146
0.851087
0.946495
0.80853
0.654276
0.500274
0.346679
0.193451
0.0440708
1.48984
1.67524
0.910345
0.943215
0.807344
0.653982
0.500195
0.346667
0.193544
0.0447885
1.48992
1.64789
0.959621
0.942649
0.80634
0.65369
0.500114
0.346652
0.193606
0.0452548
1.48982
1.62402
1.00048
0.943186
0.8055
0.653405
0.500031
0.346632
0.193635
0.0454839
1.48861
1.60416
1.03453
0.944284
0.804794
0.653131
0.499949
0.346609
0.193629
0.0454828
1.48606
1.58811
1.06273
0.945677
0.804197
0.652871
0.499867
0.346582
0.193588
0.0452514
1.48294
1.57544
1.08588
0.947176
0.803689
0.652626
0.499789
0.346553
0.193513
0.044783
1.47924
1.56579
1.10461
0.94863
0.803249
0.652399
0.499714
0.346522
0.193409
0.0440632
1.47453
1.55864
1.11942
0.949916
0.802858
0.65219
0.499645
0.34649
0.193279
0.0430701
1.46939
1.55331
1.13059
0.950943
0.802501
0.651999
0.499581
0.34646
0.193132
0.0417731
1.46524
1.54889
1.1384
0.95164
0.802165
0.651826
0.499524
0.346432
0.192975
0.0401314
1.46435
1.54513
1.14331
0.951931
0.801836
0.651673
0.499475
0.346407
0.192822
0.0380919
1.46804
1.54296
1.14582
0.951746
0.80149
0.651536
0.499433
0.346389
0.192688
0.0355234
1.47323
1.54383
1.14603
0.951037
0.80111
0.651411
0.499398
0.346377
0.192654
0.0318619
0
0
0.929325
0.991599
0.815325
0.655663
0.500612
0.346736
0.193003
0.0339524
0
0
0.924657
0.98619
0.814444
0.655492
0.500574
0.346729
0.193036
0.0376473
0
0
0.895511
0.983641
0.81359
0.6553
0.500528
0.346726
0.193169
0.04025
0
0
0.902727
0.97859
0.812561
0.655079
0.500475
0.346723
0.193321
0.0423177
1.4927
1.68164
0.813077
0.968924
0.811386
0.654831
0.500413
0.34672
0.193473
0.043981
1.48843
1.72313
0.786268
0.956826
0.810082
0.654561
0.500346
0.346714
0.193615
0.0452936
1.48682
1.72446
0.817907
0.94727
0.808717
0.654275
0.500272
0.346706
0.193737
0.0462974
1.49279
1.69863
0.880714
0.942352
0.80743
0.653981
0.500195
0.346695
0.193833
0.0470238
1.50546
1.66557
0.941044
0.941121
0.806332
0.653689
0.500115
0.34668
0.193897
0.0474955
1.52003
1.63462
0.989236
0.941622
0.805438
0.653404
0.500033
0.346661
0.193926
0.0477272
1.53077
1.60767
1.02773
0.942862
0.804707
0.653132
0.499952
0.346638
0.19392
0.0477261
1.53454
1.58608
1.05911
0.944456
0.804104
0.652875
0.499873
0.346611
0.193878
0.0474922
1.53137
1.57088
1.08466
0.946178
0.803602
0.652634
0.499796
0.346582
0.193802
0.0470183
1.52112
1.56164
1.10496
0.947882
0.803181
0.652411
0.499722
0.346551
0.193696
0.0462899
1.50398
1.55647
1.12042
0.949441
0.802825
0.652207
0.499654
0.34652
0.193563
0.0452842
1.48358
1.553
1.13165
0.950718
0.80251
0.652022
0.499591
0.346489
0.193412
0.0439698
1.46662
1.54986
1.13935
0.95159
0.802208
0.651854
0.499535
0.34646
0.193251
0.042305
1.45849
1.54673
1.14413
0.951981
0.801898
0.651704
0.499486
0.346436
0.193092
0.0402359
1.45956
1.54452
1.14651
0.951844
0.801562
0.651568
0.499445
0.346416
0.192953
0.0376321
1.46453
1.54536
1.14666
0.951149
0.801184
0.651443
0.49941
0.346404
0.192916
0.0339361
0
0
0.930246
0.992164
0.81538
0.655654
0.500609
0.346749
0.19315
0.0349446
0
0
0.92511
0.986859
0.814506
0.655483
0.500571
0.346743
0.193183
0.038648
0
0
0.894716
0.984526
0.813668
0.655293
0.500525
0.34674
0.193318
0.0412624
0
0
0.900191
0.97974
0.812662
0.655074
0.500472
0.346738
0.193472
0.0433416
1.4899
1.69028
0.809016
0.970248
0.811512
0.654829
0.500412
0.346735
0.193627
0.0450147
1.4861
1.7332
0.780219
0.95812
0.81023
0.654562
0.500344
0.34673
0.19377
0.0463354
1.48693
1.73591
0.807256
0.948342
0.808875
0.65428
0.500272
0.346722
0.193894
0.0473452
1.49826
1.71014
0.864973
0.942926
0.807569
0.653989
0.500195
0.346711
0.193991
0.048076
1.51849
1.6749
0.926525
0.940968
0.80641
0.653696
0.500116
0.346696
0.194055
0.0485505
1.54182
1.64002
0.980179
0.940902
0.805433
0.653407
0.500035
0.346677
0.194085
0.0487836
1.56096
1.60881
1.02369
0.941871
0.804634
0.65313
0.499954
0.346655
0.194079
0.0487825
1.56948
1.58349
1.05807
0.943443
0.803994
0.652871
0.499875
0.346629
0.194037
0.0485473
1.56621
1.56661
1.08489
0.945338
0.803495
0.652631
0.499799
0.3466
0.193961
0.0480706
1.55101
1.55791
1.10548
0.9473
0.803106
0.652412
0.499726
0.346569
0.193853
0.0473378
1.52522
1.55415
1.12095
0.949088
0.802785
0.652213
0.499659
0.346537
0.193719
0.0463261
1.49583
1.55227
1.13218
0.950527
0.802497
0.652031
0.499597
0.346506
0.193565
0.0450037
1.47123
1.55029
1.13986
0.951506
0.802214
0.651866
0.499541
0.346477
0.193402
0.043329
1.45785
1.54774
1.14459
0.951962
0.801917
0.651718
0.499492
0.346452
0.193242
0.0412484
1.45666
1.54564
1.14691
0.951859
0.801589
0.651583
0.499451
0.346433
0.193101
0.0386329
1.46131
1.5465
1.14703
0.951176
0.801213
0.651458
0.499416
0.346421
0.193063
0.0349285
0
0
0.930246
0.992164
0.81538
0.655654
0.500609
0.346749
0.19315
0.0349446
0
0
0.92511
0.986859
0.814506
0.655483
0.500571
0.346743
0.193183
0.038648
0
0
0.894716
0.984526
0.813668
0.655293
0.500525
0.34674
0.193318
0.0412624
0
0
0.900191
0.97974
0.812662
0.655074
0.500472
0.346738
0.193472
0.0433416
1.4899
1.69028
0.809016
0.970248
0.811512
0.654829
0.500412
0.346735
0.193627
0.0450147
1.4861
1.7332
0.780219
0.95812
0.81023
0.654562
0.500344
0.34673
0.19377
0.0463354
1.48693
1.73591
0.807256
0.948342
0.808875
0.65428
0.500272
0.346722
0.193894
0.0473452
1.49826
1.71014
0.864973
0.942926
0.807569
0.653989
0.500195
0.346711
0.193991
0.048076
1.51849
1.6749
0.926525
0.940968
0.80641
0.653696
0.500116
0.346696
0.194055
0.0485505
1.54182
1.64002
0.980179
0.940902
0.805433
0.653407
0.500035
0.346677
0.194085
0.0487836
1.56096
1.60881
1.02369
0.941871
0.804634
0.65313
0.499954
0.346655
0.194079
0.0487825
1.56948
1.58349
1.05807
0.943443
0.803994
0.652871
0.499875
0.346629
0.194037
0.0485473
1.56621
1.56661
1.08489
0.945338
0.803495
0.652631
0.499799
0.3466
0.193961
0.0480706
1.55101
1.55791
1.10548
0.9473
0.803106
0.652412
0.499726
0.346569
0.193853
0.0473378
1.52522
1.55415
1.12095
0.949088
0.802785
0.652213
0.499659
0.346537
0.193719
0.0463261
1.49583
1.55227
1.13218
0.950527
0.802497
0.652031
0.499597
0.346506
0.193565
0.0450037
1.47123
1.55029
1.13986
0.951506
0.802214
0.651866
0.499541
0.346477
0.193402
0.043329
1.45785
1.54774
1.14459
0.951962
0.801917
0.651718
0.499492
0.346452
0.193242
0.0412484
1.45666
1.54564
1.14691
0.951859
0.801589
0.651583
0.499451
0.346433
0.193101
0.0386329
1.46131
1.5465
1.14703
0.951176
0.801213
0.651458
0.499416
0.346421
0.193063
0.0349285
0
0
0.929325
0.991599
0.815325
0.655663
0.500612
0.346736
0.193003
0.0339524
0
0
0.924657
0.98619
0.814444
0.655492
0.500574
0.346729
0.193036
0.0376473
0
0
0.895511
0.983641
0.81359
0.6553
0.500528
0.346726
0.193169
0.04025
0
0
0.902727
0.97859
0.812561
0.655079
0.500475
0.346723
0.193321
0.0423177
1.4927
1.68164
0.813077
0.968924
0.811386
0.654831
0.500413
0.34672
0.193473
0.043981
1.48843
1.72313
0.786268
0.956826
0.810082
0.654561
0.500346
0.346714
0.193615
0.0452936
1.48682
1.72446
0.817907
0.94727
0.808717
0.654275
0.500272
0.346706
0.193737
0.0462974
1.49279
1.69863
0.880714
0.942352
0.80743
0.653981
0.500195
0.346695
0.193833
0.0470238
1.50546
1.66557
0.941044
0.941121
0.806332
0.653689
0.500115
0.34668
0.193897
0.0474955
1.52003
1.63462
0.989236
0.941622
0.805438
0.653404
0.500033
0.346661
0.193926
0.0477272
1.53077
1.60767
1.02773
0.942862
0.804707
0.653132
0.499952
0.346638
0.19392
0.0477261
1.53454
1.58608
1.05911
0.944456
0.804104
0.652875
0.499873
0.346611
0.193878
0.0474922
1.53137
1.57088
1.08466
0.946178
0.803602
0.652634
0.499796
0.346582
0.193802
0.0470183
1.52112
1.56164
1.10496
0.947882
0.803181
0.652411
0.499722
0.346551
0.193696
0.0462899
1.50398
1.55647
1.12042
0.949441
0.802825
0.652207
0.499654
0.34652
0.193563
0.0452842
1.48358
1.553
1.13165
0.950718
0.80251
0.652022
0.499591
0.346489
0.193412
0.0439698
1.46662
1.54986
1.13935
0.95159
0.802208
0.651854
0.499535
0.34646
0.193251
0.042305
1.45849
1.54673
1.14413
0.951981
0.801898
0.651704
0.499486
0.346436
0.193092
0.0402359
1.45956
1.54452
1.14651
0.951844
0.801562
0.651568
0.499445
0.346416
0.192953
0.0376321
1.46453
1.54536
1.14666
0.951149
0.801184
0.651443
0.49941
0.346404
0.192916
0.0339361
0
0
0.924508
0.990859
0.815268
0.655685
0.500619
0.346713
0.192743
0.0318785
0
0
0.919883
0.985143
0.814376
0.655514
0.50058
0.346706
0.192773
0.0355389
0
0
0.89102
0.982014
0.81349
0.655321
0.500535
0.346702
0.1929
0.0381063
0
0
0.902525
0.976236
0.81241
0.655096
0.500481
0.346699
0.193046
0.0401444
1.50076
1.67022
0.816944
0.966224
0.811184
0.654842
0.500418
0.346694
0.193194
0.0417845
1.49598
1.70653
0.803797
0.954535
0.809851
0.654566
0.500349
0.346688
0.193332
0.0430797
1.49136
1.70146
0.851087
0.946495
0.80853
0.654276
0.500274
0.346679
0.193451
0.0440708
1.48984
1.67524
0.910345
0.943215
0.807344
0.653982
0.500195
0.346667
0.193544
0.0447885
1.48992
1.64789
0.959621
0.942649
0.80634
0.65369
0.500114
0.346652
0.193606
0.0452548
1.48982
1.62402
1.00048
0.943186
0.8055
0.653405
0.500031
0.346632
0.193635
0.0454839
1.48861
1.60416
1.03453
0.944284
0.804794
0.653131
0.499949
0.346609
0.193629
0.0454828
1.48606
1.58811
1.06273
0.945677
0.804197
0.652871
0.499867
0.346582
0.193588
0.0452514
1.48294
1.57544
1.08588
0.947176
0.803689
0.652626
0.499789
0.346553
0.193513
0.044783
1.47924
1.56579
1.10461
0.94863
0.803249
0.652399
0.499714
0.346522
0.193409
0.0440632
1.47453
1.55864
1.11942
0.949916
0.802858
0.65219
0.499645
0.34649
0.193279
0.0430701
1.46939
1.55331
1.13059
0.950943
0.802501
0.651999
0.499581
0.34646
0.193132
0.0417731
1.46524
1.54889
1.1384
0.95164
0.802165
0.651826
0.499524
0.346432
0.192975
0.0401314
1.46435
1.54513
1.14331
0.951931
0.801836
0.651673
0.499475
0.346407
0.192822
0.0380919
1.46804
1.54296
1.14582
0.951746
0.80149
0.651536
0.499433
0.346389
0.192688
0.0355234
1.47323
1.54383
1.14603
0.951037
0.80111
0.651411
0.499398
0.346377
0.192654
0.0318619
0
0
0.913919
0.991355
0.815299
0.655729
0.50063
0.346692
0.192442
0.0285798
0
0
0.910186
0.984712
0.814418
0.655563
0.500593
0.346684
0.192462
0.0320751
0
0
0.875082
0.980486
0.813496
0.65537
0.500548
0.346679
0.192578
0.0345471
0
0
0.884918
0.973114
0.812346
0.655139
0.500493
0.346674
0.192712
0.0365239
1.51676
1.67398
0.827293
0.962757
0.811077
0.654879
0.500429
0.346669
0.192851
0.0381244
1.51251
1.68644
0.847312
0.953197
0.809767
0.654597
0.500358
0.346661
0.192983
0.0393931
1.50539
1.66807
0.893009
0.948181
0.808531
0.654302
0.500281
0.346651
0.193097
0.0403667
1.49619
1.64713
0.936661
0.945877
0.807414
0.654001
0.500199
0.346638
0.193187
0.041073
1.48572
1.62821
0.976769
0.944933
0.806431
0.653701
0.500115
0.346622
0.193247
0.0415324
1.47539
1.61147
1.01171
0.944915
0.805577
0.653408
0.50003
0.346601
0.193275
0.0417583
1.46715
1.59676
1.04155
0.945529
0.804842
0.653125
0.499944
0.346577
0.193269
0.0417571
1.46146
1.58409
1.06675
0.946528
0.804212
0.652856
0.499861
0.34655
0.193228
0.0415289
1.45849
1.57339
1.08777
0.947713
0.80367
0.652603
0.49978
0.34652
0.193155
0.0410672
1.45831
1.56456
1.10501
0.948916
0.803198
0.652368
0.499703
0.346489
0.193054
0.0403587
1.46111
1.5574
1.1188
0.950006
0.802778
0.652151
0.499631
0.346458
0.192928
0.0393832
1.46667
1.55161
1.12945
0.950875
0.802395
0.651953
0.499565
0.346428
0.192787
0.0381126
1.47329
1.54704
1.13722
0.951445
0.802033
0.651775
0.499507
0.3464
0.192639
0.0365105
1.47978
1.54377
1.14235
0.951658
0.801686
0.651619
0.499457
0.346377
0.192498
0.0345323
1.48539
1.54221
1.14507
0.951454
0.801339
0.651482
0.499416
0.346359
0.192377
0.0320591
1.48955
1.54321
1.1454
0.95077
0.800971
0.651361
0.499382
0.346349
0.192352
0.0285629
0
0
0.90453
0.994826
0.81547
0.655784
0.500644
0.34668
0.192249
0.0241775
0
0
0.902529
0.987236
0.81482
0.655653
0.500613
0.346675
0.19227
0.0266554
0
0
0.865798
0.982744
0.813877
0.655463
0.500568
0.34667
0.192352
0.028973
0
0
0.853675
0.972664
0.812744
0.655229
0.500512
0.346664
0.192469
0.0309112
1.53269
1.66596
0.861314
0.963424
0.811453
0.654961
0.500446
0.346657
0.192598
0.032485
1.52912
1.65876
0.887651
0.956098
0.810117
0.654667
0.500372
0.346648
0.192724
0.0337357
1.52138
1.64715
0.9197
0.950994
0.808822
0.654357
0.500292
0.346637
0.192835
0.0346971
1.51024
1.63328
0.955213
0.947827
0.807627
0.654041
0.500207
0.346622
0.192922
0.0353955
1.49848
1.61893
0.988883
0.946187
0.806564
0.653725
0.500119
0.346605
0.192981
0.0358502
1.48808
1.6052
1.01932
0.945653
0.805636
0.653416
0.50003
0.346583
0.193008
0.0360738
1.47974
1.59265
1.04615
0.945886
0.804837
0.653118
0.499941
0.346558
0.193002
0.0360726
1.47393
1.58153
1.06934
0.946606
0.804151
0.652834
0.499853
0.34653
0.192962
0.0358465
1.4711
1.57191
1.089
0.947587
0.803562
0.652568
0.499769
0.3465
0.19289
0.0353894
1.47135
1.5638
1.10534
0.948642
0.80305
0.65232
0.499689
0.346469
0.19279
0.0346888
1.47449
1.55718
1.11857
0.949623
0.802597
0.652093
0.499614
0.346437
0.192668
0.0337253
1.48032
1.55199
1.12892
0.950415
0.802186
0.651886
0.499547
0.346407
0.192532
0.0324727
1.48832
1.54822
1.13659
0.950928
0.801804
0.651702
0.499487
0.34638
0.192395
0.0308971
1.49668
1.54579
1.14177
0.9511
0.80144
0.651541
0.499436
0.346357
0.19227
0.0289575
1.50267
1.54479
1.14468
0.95092
0.801097
0.651406
0.499395
0.34634
0.192182
0.0266387
1.50545
1.54496
1.14526
0.950427
0.800804
0.651308
0.499367
0.346331
0.192157
0.0241601

VECTORS velocity float
0 0 0
0 0 0
0.774104 -0.0321478 -0.00107492
0.678878 -0.00293082 0.00085442
0.7107 -0.000729514 0.00010191
0.719007 -0.000162651 2.1067e-05
0.720871 -3.6636e-05 4.56212e-06
0.721323 -9.66716e-06 -2.18496e-06
0.721774 -1.40996e-05 -4.05946e-05
0.739599 -0.00122012 -0.00105596
0 0 0
0 0 0
-0.132457 -0.0953607 -0.000764743
0.691615 -0.0124487 0.000669291
0.763162 -0.00242548 0.00012825
0.774026 -0.000522885 2.70375e-05
0.776278 -0.000117372 5.81733e-06
0.776816 -3.09048e-05 -2.02381e-06
0.777448 -5.69197e-05 -4.37375e-05
0.783617 -0.00237714 -0.00125889
0 0 0
0 0 0
0.794981 -0.161503 0.000536733
0.728237 -0.0225145 0.00057412
0.768262 -0.00425876 0.000112164
0.778154 -0.000911959 2.61014e-05
0.780341 -0.00020459 5.74813e-06
0.780865 -5.35239e-05 -2.16523e-06
0.781411 -0.000104513 -4.72917e-05
0.786402 -0.00212523 -0.00129066
0 0 0
0 0 0
-0.117954 -0.229688 0.000494238
0.70923 -0.0312428 0.000127042
0.769041 -0.0059681 9.47451e-05
0.778646 -0.00128086 2.40407e-05
0.780673 -0.000287657 5.34352e-06
0.781156 -7.44267e-05 -2.38494e-06
0.781603 -0.000132182 -4.97945e-05
0.786673 -0.00175754 -0.00130437
0.421217 -0.0177404 -0.0384159
0.841792 0.00685554 -0.0239959
0.800059 -0.259201 0.0113827
0.73581 -0.0398379 0.000969241
0.770964 -0.00751867 0.000107634
0.778962 -0.00161476 2.18021e-05
0.78075 -0.00036317 4.74616e-06
0.781179 -9.26285e-05 -2.62992e-06
0.781542 -0.00014209 -5.11512e-05
0.786769 -0.0014187 -0.00131184
0.496272 -0.0476433 -0.0458728
0.965821 0.0130712 -0.0224323
0.913868 -0.245692 0.0142738
0.755647 -0.0451225 0.00141891
0.773023 -0.00878953 0.000109409
0.779324 -0.00190271 1.87019e-05
0.780828 -0.000428964 3.9821e-06
0.781191 -0.000107612 -2.89821e-06
0.781484 -0.000138444 -5.20035e-05
0.78684 -0.00111479 -0.00131654
0.541765 -0.0653461 -0.0521846
0.971956 0.0101904 -0.0182911
0.925165 -0.224282 0.00914027
0.767966 -0.0479415 0.00106904
0.775098 -0.00976285 8.5694e-05
0.779733 -0.00213724 1.45863e-05
0.780916 -0.0004833 3.08903e-06
0.781206 -0.00011905 -3.17679e-06
0.781441 -0.000124506 -5.25539e-05
0.786896 -0.000839504 -0.00131951
0.579834 -0.0707303 -0.0578316
0.966966 0.00581477 -0.0156372
0.923722 -0.201071 0.00512424
0.777966 -0.0488632 0.00067897
0.777246 -0.010429 5.93584e-05
0.780178 -0.0023127 1.01962e-05
0.781014 -0.000524795 2.11481e-06
0.781224 -0.000126771 -3.45708e-06
0.781411 -0.000102929 -5.29147e-05
0.786937 -0.000586061 -0.00132136
0.610766 -0.0657465 -0.0626742
0.961838 0.00221518 -0.0142662
0.92136 -0.178102 0.00278417
0.786731 -0.0482868 0.000398534
0.779416 -0.0107874 3.42063e-05
0.780647 -0.00242533 5.73549e-06
0.781119 -0.000552437 1.09441e-06
0.781245 -0.000130735 -3.73216e-06
0.781394 -7.59398e-05 -5.31479e-05
0.786965 -0.000347914 -0.00132245
0.634442 -0.0524855 -0.0666041
0.957305 0.000138358 -0.0136107
0.919107 -0.156264 0.00130559
0.794376 -0.0465343 0.000202964
0.781536 -0.0108483 1.20698e-05
0.781127 -0.00247338 1.3755e-06