# vtk DataFile Version 2.0
TestTestTest
ASCII

DATASET STRUCTURED_GRID
DIMENSIONS 11 21 11
POINTS 2541 float
0 0 0
0.5 0 0
1 0 0
1.5 0 0
2 0 0
2.5 0 0
3 0 0
3.5 0 0
4 0 0
4.5 0 0
5 0 0
0 0.05 0
0.5 0.05 0
1 0.05 0
1.5 0.05 0
2 0.05 0
2.5 0.05 0
3 0.05 0
3.5 0.05 0
4 0.05 0
4.5 0.05 0
5 0.05 0
0 0.1 0
0.5 0.1 0
1 0.1 0
1.5 0.1 0
2 0.1 0
2.5 0.1 0
3 0.1 0
3.5 0.1 0
4 0.1 0
4.5 0.1 0
5 0.1 0
0 0.15 0
0.5 0.15 0
1 0.15 0
1.5 0.15 0
2 0.15 0
2.5 0.15 0
3 0.15 0
3.5 0.15 0
4 0.15 0
4.5 0.15 0
5 0.15 0
0 0.2 0
0.5 0.2 0
1 0.2 0
1.5 0.2 0
2 0.2 0
2.5 0.2 0
3 0.2 0
3.5 0.2 0
4 0.2 0
4.5 0.2 0
5 0.2 0
0 0.25 0
0.5 0.25 0
1 0.25 0
1.5 0.25 0
2 0.25 0
2.5 0.25 0
3 0.25 0
3.5 0.25 0
4 0.25 0
4.5 0.25 0
5 0.25 0
0 0.3 0
0.5 0.3 0
1 0.3 0
1.5 0.3 0
2 0.3 0
2.5 0.3 0
3 0.3 0
3.5 0.3 0
4 0.3 0
4.5 0.3 0
5 0.3 0
0 0.35 0
0.5 0.35 0
1 0.35 0
1.5 0.35 0
2 0.35 0
2.5 0.35 0
3 0.35 0
3.5 0.35 0
4 0.35 0
4.5 0.35 0
5 0.35 0
0 0.4 0
0.5 0.4 0
1 0.4 0
1.5 0.4 0
2 0.4 0
2.5 0.4 0
3 0.4 0
3.5 0.4 0
4 0.4 0
4.5 0.4 0
5 0.4 0
0 0.45 0
0.5 0.45 0
1 0.45 0
1.5 0.45 0
2 0.45 0
2.5 0.45 0
3 0.45 0
3.5 0.45 0
4 0.45 0
4.5 0.45 0
5 0.45 0
0 0.5 0
0.5 0.5 0
1 0.5 0
1.5 0.5 0
2 0.5 0
2.5 0.5 0
3 0.5 0
3.5 0.5 0
4 0.5 0
4.5 0.5 0
5 0.5 0
0 0.55 0
0.5 0.55 0
1 0.55 0
1.5 0.55 0
2 0.55 0
2.5 0.55 0
3 0.55 0
3.5 0.55 0
4 0.55 0
4.5 0.55 0
5 0.55 0
0 0.6 0
0.5 0.6 0
1 0.6 0
1.5 0.6 0
2 0.6 0
2.5 0.6 0
3 0.6 0
3.5 0.6 0
4 0.6 0
4.5 0.6 0
5 0.6 0
0 0.65 0
0.5 0.65 0
1 0.65 0
1.5 0.65 0
2 0.65 0
2.5 0.65 0
3 0.65 0
3.5 0.65 0
4 0.65 0
4.5 0.65 0
5 0.65 0
0 0.7 0
0.5 0.7 0
1 0.7 0
1.5 0.7 0
2 0.7 0
2.5 0.7 0
3 0.7 0
3.5 0.7 0
4 0.7 0
4.5 0.7 0
5 0.7 0
0 0.75 0
0.5 0.75 0
1 0.75 0
1.5 0.75 0
2 0.75 0
2.5 0.75 0
3 0.75 0
3.5 0.75 0
4 0.75 0
4.5 0.75 0
5 0.75 0
0 0.8 0
0.5 0.8 0
1 0.8 0
1.5 0.8 0
2 0.8 0
2.5 0.8 0
3 0.8 0
3.5 0.8 0
4 0.8 0
4.5 0.8 0
5 0.8 0
0 0.85 0
0.5 0.85 0
1 0.85 0
1.5 0.85 0
2 0.85 0
2.5 0.85 0
3 0.85 0
3.5 0.85 0
4 0.85 0
4.5 0.85 0
5 0.85 0
0 0.9 0
0.5 0.9 0
1 0.9 0
1.5 0.9 0
2 0.9 0
2.5 0.9 0
3 0.9 0
3.5 0.9 0
4 0.9 0
4.5 0.9 0
5 0.9 0
0 0.95 0
0.5 0.95 0
1 0.95 0
1.5 0.95 0
2 0.95 0
2.5 0.95 0
3 0.95 0
3.5 0.95 0
4 0.95 0
4.5 0.95 0
5 0.95 0
0 1 0
0.5 1 0
1 1 0
1.5 1 0
2 1 0
2.5 1 0
3 1 0
3.5 1 0
4 1 0
4.5 1 0
5 1 0
0 0 0.1
0.5 0 0.1
1 0 0.1
1.5 0 0.1
2 0 0.1
2.5 0 0.1
3 0 0.1
3.5 0 0.1
4 0 0.1
4.5 0 0.1
5 0 0.1
0 0.05 0.1
0.5 0.05 0.1
1 0.05 0.1
1.5 0.05 0.1
2 0.05 0.1
2.5 0.05 0.1
3 0.05 0.1
3.5 0.05 0.1
4 0.05 0.1
4.5 0.05 0.1
5 0.05 0.1
0 0.1 0.1
0.5 0.1 0.1
1 0.1 0.1
1.5 0.1 0.1
2 0.1 0.1
2.5 0.1 0.1
3 0.1 0.1
3.5 0.1 0.1
4 0.1 0.1
4.5 0.1 0.1
5 0.1 0.1
0 0.15 0.1
0.5 0.15 0.1
1 0.15 0.1
1.5 0.15 0.1
2 0.15 0.1
2.5 0.15 0.1
3 0.15 0.1
3.5 0.15 0.1
4 0.15 0.1
4.5 0.15 0.1
5 0.15 0.1
0 0.2 0.1
0.5 0.2 0.1
1 0.2 0.1
1.5 0.2 0.1
2 0.2 0.1
2.5 0.2 0.1
3 0.2 0.1
3.5 0.2 0.1
4 0.2 0.1
4.5 0.2 0.1
5 0.2 0.1
0 0.25 0.1
0.5 0.25 0.1
1 0.25 0.1
1.5 0.25 0.1
2 0.25 0.1
2.5 0.25 0.1
3 0.25 0.1
3.5 0.25 0.1
4 0.25 0.1
4.5 0.25 0.1
5 0.25 0.1
0 0.3 0.1
0.5 0.3 0.1
1 0.3 0.1
1.5 0.3 0.1
2 0.3 0.1
2.5 0.3 0.1
3 0.3 0.1
3.5 0.3 0.1
4 0.3 0.1
4.5 0.3 0.1
5 0.3 0.1
0 0.35 0.1
0.5 0.35 0.1
1 0.35 0.1
1.5 0.35 0.1
2 0.35 0.1
2.5 0.35 0.1
3 0.35 0.1
3.5 0.35 0.1
4 0.35 0.1
4.5 0.35 0.1
5 0.35 0.1
0 0.4 0.1
0.5 0.4 0.1
1 0.4 0.1
1.5 0.4 0.1
2 0.4 0.1
2.5 0.4 0.1
3 0.4 0.1
3.5 0.4 0.1
4 0.4 0.1
4.5 0.4 0.1
5 0.4 0.1
0 0.45 0.1
0.5 0.45 0.1
1 0.45 0.1
1.5 0.45 0.1
2 0.45 0.1
2.5 0.45 0.1
3 0.45 0.1
3.5 0.45 0.1
4 0.45 0.1
4.5 0.45 0.1
5 0.45 0.1
0 0.5 0.1
0.5 0.5 0.1
1 0.5 0.1
1.5 0.5 0.1
2 0.5 0.1
2.5 0.5 0.1
3 0.5 0.1
3.5 0.5 0.1
4 0.5 0.1
4.5 0.5 0.1
5 0.5 0.1
0 0.55 0.1
0.5 0.55 0.1
1 0.55 0.1
1.5 0.55 0.1
2 0.55 0.1
2.5 0.55 0.1
3 0.55 0.1
3.5 0.55 0.1
4 0.55 0.1
4.5 0.55 0.1
5 0.55 0.1
0 0.6 0.1
0.5 0.6 0.1
1 0.6 0.1
1.5 0.6 0.1
2 0.6 0.1
2.5 0.6 0.1
3 0.6 0.1
3.5 0.6 0.1
4 0.6 0.1
4.5 0.6 0.1
5 0.6 0.1
0 0.65 0.1
0.5 0.65 0.1
1 0.65 0.1
1.5 0.65 0.1
2 0.65 0.1
2.5 0.65 0.1
3 0.65 0.1
3.5 0.65 0.1
4 0.65 0.1
4.5 0.65 0.1
5 0.65 0.1
0 0.7 0.1
0.5 0.7 0.1
1 0.7 0.1
1.5 0.7 0.1
2 0.7 0.1
2.5 0.7 0.1
3 0.7 0.1
3.5 0.7 0.1
4 0.7 0.1
4.5 0.7 0.1
5 0.7 0.1
0 0.75 0.1
0.5 0.75 0.1
1 0.75 0.1
1.5 0.75 0.1
2 0.75 0.1
2.5 0.75 0.1
3 0.75 0.1
3.5 0.75 0.1
4 0.75 0.1
4.5 0.75 0.1
5 0.75 0.1
0 0.8 0.1
0.5 0.8 0.1
1 0.8 0.1
1.5 0.8 0.1
2 0.8 0.1
2.5 0.8 0.1
3 0.8 0.1
3.5 0.8 0.1
4 0.8 0.1
4.5 0.8 0.1
5 0.8 0.1
0 0.85 0.1
0.5 0.85 0.1
1 0.85 0.1
1.5 0.85 0.1
2 0.85 0.1
2.5 0.85 0.1
3 0.85 0.1
3.5 0.85 0.1
4 0.85 0.1
4.5 0.85 0.1
5 0.85 0.1
0 0.9 0.1
0.5 0.9 0.1
1 0.9 0.1
1.5 0.9 0.1
2 0.9 0.1
2.5 0.9 0.1
3 0.9 0.1
3.5 0.9 0.1
4 0.9 0.1
4.5 0.9 0.1
5 0.9 0.1
0 0.95 0.1
0.5 0.95 0.1
1 0.95 0.1
1.5 0.95 0.1
2 0.95 0.1
2.5 0.95 0.1
3 0.95 0.1
3.5 0.95 0.1
4 0.95 0.1
4.5 0.95 0.1
5 0.95 0.1
0 1 0.1
0.5 1 0.1
1 1 0.1
1.5 1 0.1
2 1 0.1
2.5 1 0.1
3 1 0.1
3.5 1 0.1
4 1 0.1
4.5 1 0.1
5 1 0.1
0 0 0.2
0.5 0 0.2
1 0 0.2
1.5 0 0.2
2 0 0.2
2.5 0 0.2
3 0 0.2
3.5 0 0.2
4 0 0.2
4.5 0 0.2
5 0 0.2
0 0.05 0.2
0.5 0.05 0.2
1 0.05 0.2
1.5 0.05 0.2
2 0.05 0.2
2.5 0.05 0.2
3 0.05 0.2
3.5 0.05 0.2
4 0.05 0.2
4.5 0.05 0.2
5 0.05 0.2
0 0.1 0.2
0.5 0.1 0.2
1 0.1 0.2
1.5 0.1 0.2
2 0.1 0.2
2.5 0.1 0.2
3 0.1 0.2
3.5 0.1 0.2
4 0.1 0.2
4.5 0.1 0.2
5 0.1 0.2
0 0.15 0.2
0.5 0.15 0.2
1 0.15 0.2
1.5 0.15 0.2
2 0.15 0.2
2.5 0.15 0.2
3 0.15 0.2
3.5 0.15 0.2
4 0.15 0.2
4.5 0.15 0.2
5 0.15 0.2
0 0.2 0.2
0.5 0.2 0.2
1 0.2 0.2
1.5 0.2 0.2
2 0.2 0.2
2.5 0.2 0.2
3 0.2 0.2
3.5 0.2 0.2
4 0.2 0.2
4.5 0.2 0.2
5 0.2 0.2
0 0.25 0.2
0.5 0.25 0.2
1 0.25 0.2
1.5 0.25 0.2
2 0.25 0.2
2.5 0.25 0.2
3 0.25 0.2
3.5 0.25 0.2
4 0.25 0.2
4.5 0.25 0.2
5 0.25 0.2
0 0.3 0.2
0.5 0.3 0.2
1 0.3 0.2
1.5 0.3 0.2
2 0.3 0.2
2.5 0.3 0.2
3 0.3 0.2
3.5 0.3 0.2
4 0.3 0.2
4.5 0.3 0.2
5 0.3 0.2
0 0.35 0.2
0.5 0.35 0.2
1 0.35 0.2
1.5 0.35 0.2
2 0.35 0.2
2.5 0.35 0.2
3 0.35 0.2
3.5 0.35 0.2
4 0.35 0.2
4.5 0.35 0.2
5 0.35 0.2
0 0.4 0.2
0.5 0.4 0.2
1 0.4 0.2
1.5 0.4 0.2
2 0.4 0.2
2.5 0.4 0.2
3 0.4 0.2
3.5 0.4 0.2
4 0.4 0.2
4.5 0.4 0.2
5 0.4 0.2
0 0.45 0.2
0.5 0.45 0.2
1 0.45 0.2
1.5 0.45 0.2
2 0.45 0.2
2.5 0.45 0.2
3 0.45 0.2
3.5 0.45 0.2
4 0.45 0.2
4.5 0.45 0.2
5 0.45 0.2
0 0.5 0.2
0.5 0.5 0.2
1 0.5 0.2
1.5 0.5 0.2
2 0.5 0.2
2.5 0.5 0.2
3 0.5 0.2
3.5 0.5 0.2
4 0.5 0.2
4.5 0.5 0.2
5 0.5 0.2
0 0.55 0.2
0.5 0.55 0.2
1 0.55 0.2
1.5 0.55 0.2
2 0.55 0.2
2.5 0.55 0.2
3 0.55 0.2
3.5 0.55 0.2
4 0.55 0.2
4.5 0.55 0.2
5 0.55 0.2
0 0.6 0.2
0.5 0.6 0.2
1 0.6 0.2
1.5 0.6 0.2
2 0.6 0.2
2.5 0.6 0.2
3 0.6 0.2
3.5 0.6 0.2
4 0.6 0.2
4.5 0.6 0.2
5 0.6 0.2
0 0.65 0.2
0.5 0.65 0.2
1 0.65 0.2
1.5 0.65 0.2
2 0.65 0.2
2.5 0.65 0.2
3 0.65 0.2
3.5 0.65 0.2
4 0.65 0.2
4.5 0.65 0.2
5 0.65 0.2
0 0.7 0.2
0.5 0.7 0.2
1 0.7 0.2
1.5 0.7 0.2
2 0.7 0.2
2.5 0.7 0.2
3 0.7 0.2
3.5 0.7 0.2
4 0.7 0.2
4.5 0.7 0.2
5 0.7 0.2
0 0.75 0.2
0.5 0.75 0.2
1 0.75 0.2
1.5 0.75 0.2
2 0.75 0.2
2.5 0.75 0.2
3 0.75 0.2
3.5 0.75 0.2
4 0.75 0.2
4.5 0.75 0.2
5 0.75 0.2
0 0.8 0.2
0.5 0.8 0.2
1 0.8 0.2
1.5 0.8 0.2
2 0.8 0.2
2.5 0.8 0.2
3 0.8 0.2
3.5 0.8 0.2
4 0.8 0.2
4.5 0.8 0.2
5 0.8 0.2
0 0.85 0.2
0.5 0.85 0.2
1 0.85 0.2
1.5 0.85 0.2
2 0.85 0.2
2.5 0.85 0.2
3 0.85 0.2
3.5 0.85 0.2
4 0.85 0.2
4.5 0.85 0.2
5 0.85 0.2
0 0.9 0.2
0.5 0.9 0.2
1 0.9 0.2
1.5 0.9 0.2
2 0.9 0.2
2.5 0.9 0.2
3 0.9 0.2
3.5 0.9 0.2
4 0.9 0.2
4.5 0.9 0.2
5 0.9 0.2
0 0.95 0.2
0.5 0.95 0.2
1 0.95 0.2
1.5 0.95 0.2
2 0.95 0.2
2.5 0.95 0.2
3 0.95 0.2
3.5 0.95 0.2
4 0.95 0.2
4.5 0.95 0.2
5 0.95 0.2
0 1 0.2
0.5 1 0.2
1 1 0.2
1.5 1 0.2
2 1 0.2
2.5 1 0.2
3 1 0.2
3.5 1 0.2
4 1 0.2
4.5 1 0.2
5 1 0.2
0 0 0.3
0.5 0 0.3
1 0 0.3
1.5 0 0.3
2 0 0.3
2.5 0 0.3
3 0 0.3
3.5 0 0.3
4 0 0.3
4.5 0 0.3
5 0 0.3
0 0.05 0.3
0.5 0.05 0.3
1 0.05 0.3
1.5 0.05 0.3
2 0.05 0.3
2.5 0.05 0.3
3 0.05 0.3
3.5 0.05 0.3
4 0.05 0.3
4.5 0.05 0.3
5 0.05 0.3
0 0.1 0.3
0.5 0.1 0.3
1 0.1 0.3
1.5 0.1 0.3
2 0.1 0.3
2.5 0.1 0.3
3 0.1 0.3
3.5 0.1 0.3
4 0.1 0.3
4.5 0.1 0.3
5 0.1 0.3
0 0.15 0.3
0.5 0.15 0.3
1 0.15 0.3
1.5 0.15 0.3
2 0.15 0.3
2.5 0.15 0.3
3 0.15 0.3
3.5 0.15 0.3
4 0.15 0.3
4.5 0.15 0.3
5 0.15 0.3
0 0.2 0.3
0.5 0.2 0.3
1 0.2 0.3
1.5 0.2 0.3
2 0.2 0.3
2.5 0.2 0.3
3 0.2 0.3
3.5 0.2 0.3
4 0.2 0.3
4.5 0.2 0.3
5 0.2 0.3
0 0.25 0.3
0.5 0.25 0.3
1 0.25 0.3
1.5 0.25 0.3
2 0.25 0.3
2.5 0.25 0.3
3 0.25 0.3
3.5 0.25 0.3
4 0.25 0.3
4.5 0.25 0.3
5 0.25 0.3
0 0.3 0.3
0.5 0.3 0.3
1 0.3 0.3
1.5 0.3 0.3
2 0.3 0.3
2.5 0.3 0.3
3 0.3 0.3
3.5 0.3 0.3
4 0.3 0.3
4.5 0.3 0.3
5 0.3 0.3
0 0.35 0.3
0.5 0.35 0.3
1 0.35 0.3
1.5 0.35 0.3
2 0.35 0.3
2.5 0.35 0.3
3 0.35 0.3
3.5 0.35 0.3
4 0.35 0.3
4.5 0.35 0.3
5 0.35 0.3
0 0.4 0.3
0.5 0.4 0.3
1 0.4 0.3
1.5 0.4 0.3
2 0.4 0.3
2.5 0.4 0.3
3 0.4 0.3
3.5 0.4 0.3
4 0.4 0.3
4.5 0.4 0.3
5 0.4 0.3
0 0.45 0.3
0.5 0.45 0.3
1 0.45 0.3
1.5 0.45 0.3
2 0.45 0.3
2.5 0.45 0.3
3 0.45 0.3
3.5 0.45 0.3
4 0.45 0.3
4.5 0.45 0.3
5 0.45 0.3
0 0.5 0.3
0.5 0.5 0.3
1 0.5 0.3
1.5 0.5 0.3
2 0.5 0.3
2.5 0.5 0.3
3 0.5 0.3
3.5 0.5 0.3
4 0.5 0.3
4.5 0.5 0.3
5 0.5 0.3
0 0.55 0.3
0.5 0.55 0.3
1 0.55 0.3
1.5 0.55 0.3
2 0.55 0.3
2.5 0.55 0.3
3 0.55 0.3
3.5 0.55 0.3
4 0.55 0.3
4.5 0.55 0.3
5 0.55 0.3
0 0.6 0.3
0.5 0.6 0.3
1 0.6 0.3
1.5 0.6 0.3
2 0.6 0.3
2.5 0.6 0.3
3 0.6 0.3
3.5 0.6 0.3
4 0.6 0.3
4.5 0.6 0.3
5 0.6 0.3
0 0.65 0.3
0.5 0.65 0.3
1 0.65 0.3
1.5 0.65 0.3
2 0.65 0.3
2.5 0.65 0.3
3 0.65 0.3
3.5 0.65 0.3
4 0.65 0.3
4.5 0.65 0.3
5 0.65 0.3
0 0.7 0.3
0.5 0.7 0.3
1 0.7 0.3
1.5 0.7 0.3
2 0.7 0.3
2.5 0.7 0.3
3 0.7 0.3
3.5 0.7 0.3
4 0.7 0.3
4.5 0.7 0.3
5 0.7 0.3
0 0.75 0.3
0.5 0.75 0.3
1 0.75 0.3
1.5 0.75 0.3
2 0.75 0.3
2.5 0.75 0.3
3 0.75 0.3
3.5 0.75 0.3
4 0.75 0.3
4.5 0.75 0.3
5 0.75 0.3
0 0.8 0.3
0.5 0.8 0.3
1 0.8 0.3
1.5 0.8 0.3
2 0.8 0.3
2.5 0.8 0.3
3 0.8 0.3
3.5 0.8 0.3
4 0.8 0.3
4.5 0.8 0.3
5 0.8 0.3
0 0.85 0.3
0.5 0.85 0.3
1 0.85 0.3
1.5 0.85 0.3
2 0.85 0.3
2.5 0.85 0.3
3 0.85 0.3
3.5 0.85 0.3
4 0.85 0.3
4.5 0.85 0.3
5 0.85 0.3
0 0.9 0.3
0.5 0.9 0.3
1 0.9 0.3
1.5 0.9 0.3
2 0.9 0.3
2.5 0.9 0.3
3 0.9 0.3
3.5 0.9 0.3
4 0.9 0.3
4.5 0.9 0.3
5 0.9 0.3
0 0.95 0.3
0.5 0.95 0.3
1 0.95 0.3
1.5 0.95 0.3
2 0.95 0.3
2.5 0.95 0.3
3 0.95 0.3
3.5 0.95 0.3
4 0.95 0.3
4.5 0.95 0.3
5 0.95 0.3
0 1 0.3
0.5 1 0.3
1 1 0.3
1.5 1 0.3
2 1 0.3
2.5 1 0.3
3 1 0.3
3.5 1 0.3
4 1 0.3
4.5 1 0.3
5 1 0.3
0 0 0.4
[...]
CELL_DATA 2000
SCALARS pressure float 1
LOOKUP_TABLE default
0
0
0.872713
0.944558
0.772556
0.620155
0.473237
0.327766
0.181968
0.0236978
0
0
0.869742
0.937585
0.77194
0.620025
0.473207
0.327761
0.181964
0.0257375
0
0
0.837269
0.933503
0.770992
0.619824
0.473159
0.327754
0.182028
0.0278125
0
0
0.82359
0.924262
0.76979
0.619562
0.473097
0.327746
0.182131
0.0295875
1.31962
1.45357
0.82673
0.915389
0.768356
0.619253
0.473022
0.327736
0.182248
0.0310264
1.31744
1.45249
0.844569
0.907417
0.766805
0.618908
0.472937
0.327724
0.182362
0.0321671
1.31152
1.44903
0.8674
0.901111
0.765238
0.618538
0.472844
0.32771
0.182463
0.0330424
1.30258
1.4431
0.895428
0.896557
0.76373
0.618155
0.472745
0.327691
0.182544
0.0336774
1.29311
1.43546
0.923302
0.893557
0.762338
0.617768
0.472641
0.32767
0.182597
0.0340903
1.28485
1.42729
0.948864
0.891721
0.76108
0.617385
0.472536
0.327645
0.182621
0.0342932
1.27839
1.41931
0.971644
0.890731
0.759957
0.617012
0.47243
0.327616
0.182614
0.0342919
1.2741
1.41197
0.991503
0.890327
0.758961
0.616655
0.472327
0.327585
0.182575
0.0340864
1.27236
1.40552
1.00846
0.890293
0.758081
0.616318
0.472227
0.327552
0.182508
0.0336709
1.27322
1.40009
1.02261
0.890449
0.757302
0.616005
0.472132
0.327519
0.182414
0.0330335
1.27657
1.3957
1.03409
0.890653
0.756611
0.615719
0.472045
0.327485
0.182301
0.032156
1.28224
1.39231
1.04306
0.89079
0.755995
0.615461
0.471966
0.327454
0.182175
0.0310132
1.28976
1.38984
1.04968
0.890772
0.755443
0.615234
0.471897
0.327426
0.182049
0.0295726
1.2975
1.38814
1.0541
0.890547
0.75495
0.615041
0.471839
0.327403
0.181938
0.0277961
1.3028
1.38726
1.05655
0.890139
0.754533
0.614889
0.471795
0.327386
0.181869
0.0257199
1.3048
1.38716
1.05696
0.889596
0.754226
0.614789
0.471767
0.327377
0.181869
0.0236796
0
0
0.881989
0.942625
0.772598
0.620129
0.473229
0.327777
0.182139
0.0276381
0
0
0.877067
0.936208
0.771684
0.619961
0.473192
0.327768
0.182089
0.0308501
0
0
0.845652
0.932167
0.770693
0.619746
0.473142
0.327761
0.182201
0.0331896
0
0
0.850316
0.925471
0.769429
0.619483
0.47308
0.327754
0.182332
0.0349864
1.30605
1.45095
0.803798
0.91573
0.767992
0.619181
0.473007
0.327745
0.182464
0.0364423
1.30335
1.46772
0.813329
0.905514
0.766448
0.618846
0.472924
0.327735
0.182587
0.0375966
1.29843
1.46385
0.845375
0.898551
0.764922
0.61849
0.472834
0.327721
0.182694
0.0384819
1.29193
1.45293
0.879042
0.89451
0.763492
0.61812
0.472738
0.327704
0.182777
0.039124
1.28464
1.44126
0.911269
0.892069
0.76218
0.617746
0.472638
0.327684
0.182833
0.0395414
1.27761
1.4298
0.940619
0.890681
0.760992
0.617376
0.472535
0.32766
0.182857
0.0397464
1.27213
1.4192
0.966134
0.890056
0.759929
0.617016
0.472433
0.327632
0.18285
0.0397452
1.26842
1.40999
0.987923
0.889937
0.758984
0.616672
0.472333
0.327601
0.182811
0.0395376
1.26651
1.4025
1.00627
0.890122
0.758147
0.616347
0.472236
0.327569
0.182742
0.0391178
1.26644
1.39675
1.02142
0.890447
0.757405
0.616045
0.472144
0.327535
0.182646
0.0384734
1.26854
1.39256
1.03359
0.890779
0.756745
0.615768
0.472059
0.327502
0.182527
0.0375858
1.27283
1.38952
1.04299
0.891013
0.756155
0.615518
0.471982
0.32747
0.182393
0.0364296
1.27813
1.38717
1.04981
0.891075
0.755624
0.615297
0.471914
0.327441
0.182252
0.0349719
1.28356
1.38535
1.05425
0.890906
0.755147
0.615107
0.471857
0.327418
0.182113
0.0331737
1.28821
1.38453
1.0566
0.890456
0.754709
0.614947
0.471811
0.327401
0.181995
0.030833
1.29152
1.38576
1.05685
0.889723
0.754322
0.614823
0.471777
0.327393
0.182041
0.0276202
0
0
0.892792
0.943658
0.772778
0.620109
0.473221
0.327798
0.182425
0.0307622
0
0
0.88725
0.938027
0.771821
0.61993
0.473182
0.32779
0.182388
0.0342052
0
0
0.860541
0.93493
0.77084
0.619708
0.47313
0.327783
0.182521
0.0366838
0
0
0.867148
0.929675
0.769635
0.619449
0.473068
0.327778
0.182671
0.0385572
1.29174
1.44203
0.797637
0.920261
0.768243
0.619151
0.472997
0.327771
0.182817
0.0400596
1.28894
1.47654
0.781716
0.908267
0.766679
0.61882
0.472916
0.327762
0.18295
0.0412445
1.28694
1.48497
0.809619
0.89847
0.765046
0.618467
0.472827
0.32775
0.183063
0.0421499
1.28826
1.47438
0.853756
0.892536
0.76349
0.618102
0.472734
0.327734
0.183151
0.0428047
1.29155
1.45504
0.89414
0.889769
0.762107
0.617734
0.472636
0.327715
0.18321
0.0432298
1.29483
1.4351
0.928439
0.888744
0.760907
0.617372
0.472537
0.327692
0.183236
0.0434385
1.29685
1.41799
0.957801
0.88858
0.759863
0.61702
0.472437
0.327665
0.183229
0.0434373
1.29673
1.4047
0.982626
0.888878
0.758949
0.616684
0.472339
0.327635
0.183189
0.0432262
1.29466
1.3952
1.00329
0.889409
0.758146
0.616368
0.472245
0.327602
0.183117
0.0427987
1.29063
1.38919
1.02018
0.890017
0.757437
0.616074
0.472155
0.327569
0.183017
0.0421416
1.28479
1.38616
1.03364
0.890579
0.756807
0.615805
0.472072
0.327535
0.182891
0.0412341
1.27838
1.3852
1.04376
0.891001
0.756245
0.615561
0.471997
0.327502
0.182747
0.0400473
1.27314
1.38486
1.05071
0.891202
0.755742
0.615346
0.47193
0.327473
0.182592
0.0385432
1.27126
1.38424
1.05494
0.891108
0.755281
0.61516
0.471874
0.327448
0.182435
0.0366684
1.27353
1.38399
1.05711
0.890664
0.754838
0.614996
0.471826
0.327429
0.182295
0.0341885
1.2772
1.38574
1.05734
0.889893
0.754429
0.614864
0.471791
0.327419
0.182328
0.0307446
0
0
0.898633
0.945378
0.772993
0.620104
0.473216
0.32782
0.182679
0.0327432
0
0
0.893486
0.940032
0.772039
0.619923
0.473177
0.327812
0.182646
0.0362351
0
0
0.867123
0.937522
0.771086
0.619702
0.473125
0.327807
0.182788
0.0387608
0
0
0.870633
0.932924
0.769935
0.619447
0.473064
0.327803
0.182946
0.0406711
1.28438
1.4471
0.797064
0.923782
0.768596
0.619154
0.472993
0.327797
0.183099
0.0422015
1.28258
1.48563
0.769103
0.911387
0.767056
0.618829
0.472914
0.327789
0.183239
0.0434068
1.28415
1.49951
0.781812
0.90002
0.765371
0.618478
0.472827
0.327778
0.183357
0.044327
1.29348
1.4911
0.822687
0.892125
0.763689
0.618112
0.472734
0.327763
0.183448
0.0449921
1.30948
1.46775
0.871922
0.888199
0.762166
0.617741
0.472638
0.327745
0.183509
0.0454235
1.32697
1.44005
0.914868
0.886889
0.760865
0.617376
0.472539
0.327722
0.183536
0.0456352
1.34017
1.41451
0.949388
0.886844
0.759769
0.617023
0.472441
0.327695
0.183529
0.045634
1.34585
1.39467
0.977691
0.887396
0.758836
0.616688
0.472345
0.327666
0.183488
0.04542
1.34372
1.38219
1.00113
0.888225
0.758034
0.616374
0.472251
0.327633
0.183414
0.0449862
1.33362
1.37676
1.01994
0.889153
0.757344
0.616083
0.472163
0.327599
0.183311
0.0443189
1.31613
1.37642
1.03424
0.890037
0.756752
0.615819
0.472081
0.327565
0.183181
0.0433967
1.29513
1.37859
1.04449
0.890728
0.756236
0.615582
0.472007
0.327532
0.183031
0.0421894
1.27726
1.38125
1.05139
0.89111
0.755768
0.615372
0.471941
0.327502
0.182868
0.0406574
1.2677
1.38304
1.05555
0.891111
0.755327
0.615187
0.471885
0.327476
0.182702
0.0387456
1.26673
1.38398
1.05763
0.890709
0.754892
0.615024
0.471837
0.327456
0.182554
0.0362187
1.26955
1.38622
1.05789
0.889954
0.754483
0.614891
0.471801
0.327445
0.182583
0.0327259
0
0
0.900388
0.946428
0.773132
0.620105
0.473214
0.327834
0.182821
0.0336942
0
0
0.895077
0.941191
0.772184
0.619924
0.473175
0.327826
0.18279
0.0371981
0
0
0.868029
0.938923
0.771247
0.619704
0.473123
0.327821
0.182934
0.0397395
0
0
0.870324
0.934592
0.770121
0.61945
0.473063
0.327818
0.183096
0.0416645
1.28182
1.45239
0.795495
0.925573
0.768807
0.619161
0.472992
0.327813
0.183253
0.043207
1.28078
1.49205
0.765277
0.913079
0.767288
0.618839
0.472913
0.327805
0.183395
0.044422
1.28515
1.50691
0.773178
0.901394
0.765603
0.618491
0.472827
0.327795
0.183516
0.0453494
1.30017
1.49873
0.807306
0.892794
0.763886
0.618126
0.472735
0.32778
0.183609
0.0460196
1.32393
1.47394
0.854134
0.887814
0.762278
0.617753
0.472639
0.327762
0.18367
0.0464544
1.35004
1.44255
0.901788
0.885733
0.760871
0.617381
0.472541
0.32774
0.183698
0.0466677
1.37106
1.41243
0.943134
0.885477
0.759688
0.617022
0.472443
0.327713
0.183691
0.0466665
1.38091
1.38838
0.976047
0.886173
0.758709
0.616683
0.472347
0.327684
0.18365
0.0464508
1.37858
1.37368
1.00128
0.887298
0.757907
0.616369
0.472254
0.327651
0.183575
0.0460138
1.36396
1.36843
1.02035
0.888531
0.75725
0.616083
0.472167
0.327617
0.18347
0.0453414
1.33847
1.36968
1.03457
0.889655
0.756697
0.615823
0.472086
0.327583
0.183338
0.0444119
1.30887
1.37412
1.04482
0.890515
0.756211
0.61559
0.472012
0.32755
0.183185
0.043195
1.28333
1.37892
1.05174
0.891006
0.755764
0.615382
0.471946
0.327519
0.183019
0.0416509
1.26825
1.38226
1.05588
0.891069
0.755336
0.615199
0.47189
0.327492
0.18285
0.0397245
1.26465
1.38404
1.05794
0.890699
0.754908
0.615036
0.471842
0.327472
0.182699
0.0371818
1.26679
1.38662
1.05822
0.889958
0.754502
0.614904
0.471807
0.327461
0.182726
0.033677
0
0
0.900388
0.946428
0.773132
0.620105
0.473214
0.327834
0.182821
0.0336942
0
0
0.895077
0.941191
0.772184
0.619924
0.473175
0.327826
0.18279
0.0371981
0
0
0.868029
0.938923
0.771247
0.619704
0.473123
0.327821
0.182934
0.0397395
0
0
0.870324
0.934592
0.770121
0.61945
0.473063
0.327818
0.183096
0.0416645
1.28182
1.45239
0.795495
0.925573
0.768807
0.619161
0.472992
0.327813
0.183253
0.043207
1.28078
1.49205
0.765277
0.913079
0.767288
0.618839
0.472913
0.327805
0.183395
0.044422
1.28515
1.50691
0.773178
0.901394
0.765603
0.618491
0.472827
0.327795
0.183516
0.0453494
1.30017
1.49873
0.807306
0.892794
0.763886
0.618126
0.472735
0.32778
0.183609
0.0460196
1.32393
1.47394
0.854134
0.887814
0.762278
0.617753
0.472639
0.327762
0.18367
0.0464544
1.35004
1.44255
0.901788
0.885733
0.760871
0.617381
0.472541
0.32774
0.183698
0.0466677
1.37106
1.41243
0.943134
0.885477
0.759688
0.617022
0.472443
0.327713
0.183691
0.0466665
1.38091
1.38838
0.976047
0.886173
0.758709
0.616683
0.472347
0.327684
0.18365
0.0464508
1.37858
1.37368
1.00128
0.887298
0.757907
0.616369
0.472254
0.327651
0.183575
0.0460138
1.36396
1.36843
1.02035
0.888531
0.75725
0.616083
0.472167
0.327617
0.18347
0.0453414
1.33847
1.36968
1.03457
0.889655
0.756697
0.615823
0.472086
0.327583
0.183338
0.0444119
1.30887
1.37412
1.04482
0.890515
0.756211
0.61559
0.472012
0.32755
0.183185
0.043195
1.28333
1.37892
1.05174
0.891006
0.755764
0.615382
0.471946
0.327519
0.183019
0.0416509
1.26825
1.38226
1.05588
0.891069
0.755336
0.615199
0.47189
0.327492
0.18285
0.0397245
1.26465
1.38404
1.05794
0.890699
0.754908
0.615036
0.471842
0.327472
0.182699
0.0371818
1.26679
1.38662
1.05822
0.889958
0.754502
0.614904
0.471807
0.327461
0.182726
0.033677
0
0
0.898633
0.945378
0.772993
0.620104
0.473216
0.32782
0.182679
0.0327432
0
0
0.893486
0.940032
0.772039
0.619923
0.473177
0.327812
0.182646
0.0362351
0
0
0.867123
0.937522
0.771086
0.619702
0.473125
0.327807
0.182788
0.0387608
0
0
0.870633
0.932924
0.769935
0.619447
0.473064
0.327803
0.182946
0.0406711
1.28438
1.4471
0.797064
0.923782
0.768596
0.619154
0.472993
0.327797
0.183099
0.0422015
1.28258
1.48563
0.769103
0.911387
0.767056
0.618829
0.472914
0.327789
0.183239
0.0434068
1.28415
1.49951
0.781812
0.90002
0.765371
0.618478
0.472827
0.327778
0.183357
0.044327
1.29348
1.4911
0.822687
0.892125
0.763689
0.618112
0.472734
0.327763
0.183448
0.0449921
1.30948
1.46775
0.871922
0.888199
0.762166
0.617741
0.472638
0.327745
0.183509
0.0454235
1.32697
1.44005
0.914868
0.886889
0.760865
0.617376
0.472539
0.327722
0.183536
0.0456352
1.34017
1.41451
0.949388
0.886844
0.759769
0.617023
0.472441
0.327695
0.183529
0.045634
1.34585
1.39467
0.977691
0.887396
0.758836
0.616688
0.472345
0.327666
0.183488
0.04542
1.34372
1.38219
1.00113
0.888225
0.758034
0.616374
0.472251
0.327633
0.183414
0.0449862
1.33362
1.37676
1.01994
0.889153
0.757344
0.616083
0.472163
0.327599
0.183311
0.0443189
1.31613
1.37642
1.03424
0.890037
0.756752
0.615819
0.472081
0.327565
0.183181
0.0433967
1.29513
1.37859
1.04449
0.890728
0.756236
0.615582
0.472007
0.327532
0.183031
0.0421894
1.27726
1.38125
1.05139
0.89111
0.755768
0.615372
0.471941
0.327502
0.182868
0.0406574
1.2677
1.38304
1.05555
0.891111
0.755327
0.615187
0.471885
0.327476
0.182702
0.0387456
1.26673
1.38398
1.05763
0.890709
0.754892
0.615024
0.471837
0.327456
0.182554
0.0362187
1.26955
1.38622
1.05789
0.889954
0.754483
0.614891
0.471801
0.327445
0.182583
0.0327259
0
0
0.892792
0.943658
0.772778
0.620109
0.473221
0.327798
0.182425
0.0307622
0
0
0.88725
0.938027
0.771821
0.61993
0.473182
0.32779
0.182388
0.0342052
0
0
0.860541
0.93493
0.77084
0.619708
0.47313
0.327783
0.182521
0.0366838
0
0
0.867148
0.929675
0.769635
0.619449
0.473068
0.327778
0.182671
0.0385572
1.29174
1.44203
0.797637
0.920261
0.768243
0.619151
0.472997
0.327771
0.182817
0.0400596
1.28894
1.47654
0.781716
0.908267
0.766679
0.61882
0.472916
0.327762
0.18295
0.0412445
1.28694
1.48497
0.809619
0.89847
0.765046
0.618467
0.472827
0.32775
0.183063
0.0421499
1.28826
1.47438
0.853756
0.892536
0.76349
0.618102
0.472734
0.327734
0.183151
0.0428047
1.29155
1.45504
0.89414
0.889769
0.762107
0.617734
0.472636
0.327715
0.18321
0.0432298
1.29483
1.4351
0.928439
0.888744
0.760907
0.617372
0.472537
0.327692
0.183236
0.0434385
1.29685
1.41799
0.957801
0.88858
0.759863
0.61702
0.472437
0.327665
0.183229
0.0434373
1.29673
1.4047
0.982626
0.888878
0.758949
0.616684
0.472339
0.327635
0.183189
0.0432262
1.29466
1.3952
1.00329
0.889409
0.758146
0.616368
0.472245
0.327602
0.183117
0.0427987
1.29063
1.38919
1.02018
0.890017
0.757437
0.616074
0.472155
0.327569
0.183017
0.0421416
1.28479
1.38616
1.03364
0.890579
0.756807
0.615805
0.472072
0.327535
0.182891
0.0412341
1.27838
1.3852
1.04376
0.891001
0.756245
0.615561
0.471997
0.327502
0.182747
0.0400473
1.27314
1.38486
1.05071
0.891202
0.755742
0.615346
0.47193
0.327473
0.182592
0.0385432
1.27126
1.38424
1.05494
0.891108
0.755281
0.61516
0.471874
0.327448
0.182435
0.0366684
1.27353
1.38399
1.05711
0.890664
0.754838
0.614996
0.471826
0.327429
0.182295
0.0341885
1.2772
1.38574
1.05734
0.889893
0.754429
0.614864
0.471791
0.327419
0.182328
0.0307446
0
0
0.881989
0.942625
0.772598
0.620129
0.473229
0.327777
0.182139
0.0276381
0
0
0.877067
0.936208
0.771684
0.619961
0.473192
0.327768
0.182089
0.0308501
0
0
0.845652
0.932167
0.770693
0.619746
0.473142
0.327761
0.182201
0.0331896
0
0
0.850316
0.925471
0.769429
0.619483
0.47308
0.327754
0.182332
0.0349864
1.30605
1.45095
0.803798
0.91573
0.767992
0.619181
0.473007
0.327745
0.182464
0.0364423
1.30335
1.46772
0.813329
0.905514
0.766448
0.618846
0.472924
0.327735
0.182587
0.0375966
1.29843
1.46385
0.845375
0.898551
0.764922
0.61849
0.472834
0.327721
0.182694
0.0384819
1.29193
1.45293
0.879042
0.89451
0.763492
0.61812
0.472738
0.327704
0.182777
0.039124
1.28464
1.44126
0.911269
0.892069
0.76218
0.617746
0.472638
0.327684
0.182833
0.0395414
1.27761
1.4298
0.940619
0.890681
0.760992
0.617376
0.472535
0.32766
0.182857
0.0397464
1.27213
1.4192
0.966134
0.890056
0.759929
0.617016
0.472433
0.327632
0.18285
0.0397452
1.26842
1.40999
0.987923
0.889937
0.758984
0.616672
0.472333
0.327601
0.182811
0.0395376
1.26651
1.4025
1.00627
0.890122
0.758147
0.616347
0.472236
0.327569
0.182742
0.0391178
1.26644
1.39675
1.02142
0.890447
0.757405
0.616045
0.472144
0.327535
0.182646
0.0384734
1.26854
1.39256
1.03359
0.890779
0.756745
0.615768
0.472059
0.327502
0.182527
0.0375858
1.27283
1.38952
1.04299
0.891013
0.756155
0.615518
0.471982
0.32747
0.182393
0.0364296
1.27813
1.38717
1.04981
0.891075
0.755624
0.615297
0.471914
0.327441
0.182252
0.0349719
1.28356
1.38535
1.05425
0.890906
0.755147
0.615107
0.471857
0.327418
0.182113
0.0331737
1.28821
1.38453
1.0566
0.890456
0.754709
0.614947
0.471811
0.327401
0.181995
0.030833
1.29152
1.38576
1.05685
0.889723
0.754322
0.614823
0.471777
0.327393
0.182041
0.0276202
0
0
0.872713
0.944558
0.772556
0.620155
0.473237
0.327766
0.181968
0.0236978
0
0
0.869742
0.937585
0.77194
0.620025
0.473207
0.327761
0.181964
0.0257375
0
0
0.837269
0.933503
0.770992
0.619824
0.473159
0.327754
0.182028
0.0278125
0
0
0.82359
0.924262
0.76979
0.619562
0.473097
0.327746
0.182131
0.0295875
1.31962
1.45357
0.82673
0.915389
0.768356
0.619253
0.473022
0.327736
0.182248
0.0310264
1.31744
1.45249
0.844569
0.907417
0.766805
0.618908
0.472937
0.327724
0.182362
0.0321671
1.31152
1.44903
0.8674
0.901111
0.765238
0.618538
0.472844
0.32771
0.182463
0.0330424
1.30258
1.4431
0.895428
0.896557
0.76373
0.618155
0.472745
0.327691
0.182544
0.0336774
1.29311
1.43546
0.923302
0.893557
0.762338
0.617768
0.472641
0.32767
0.182597
0.0340903
1.28485
1.42729
0.948864
0.891721
0.76108
0.617385
0.472536
0.327645
0.182621
0.0342932
1.27839
1.41931
0.971644
0.890731
0.759957
0.617012
0.47243
0.327616
0.182614
0.0342919
1.2741
1.41197
0.991503
0.890327
0.758961
0.616655
0.472327
0.327585
0.182575
0.0340864
1.27236
1.40552
1.00846
0.890293
0.758081
0.616318
0.472227
0.327552
0.182508
0.0336709
1.27322
1.40009
1.02261
0.890449
0.757302
0.616005
0.472132
0.327519
0.182414
0.0330335
1.27657
1.3957
1.03409
0.890653
0.756611
0.615719
0.472045
0.327485
0.182301
0.032156
1.28224
1.39231
1.04306
0.89079
0.755995
0.615461
0.471966
0.327454
0.182175
0.0310132
1.28976
1.38984
1.04968
0.890772
0.755443
0.615234
0.471897
0.327426
0.182049
0.0295726
1.2975
1.38814
1.0541
0.890547
0.75495
0.615041
0.471839
0.327403
0.181938
0.0277961
1.3028
1.38726
1.05655
0.890139
0.754533
0.614889
0.471795
0.327386
0.181869
0.0257199
1.3048
1.38716
1.05696
0.889596
0.754226
0.614789
0.471767
0.327377
0.181869
0.0236796

VECTORS velocity float
0 0 0
0 0 0
0.705692 -0.0296985 -0.00331985
0.643162 -0.00212127 0.00106449
0.664385 -0.000601098 0.000135636
0.670946 -0.000137915 3.01749e-05
0.672446 -3.06243e-05 6.85136e-06
0.672821 -8.65002e-06 -3.11608e-06
0.673194 -1.34484e-06 -5.15585e-05
0.69949 -0.00179053 -0.001624
0 0 0
0 0 0
-0.0925641 -0.0879652 -0.00272733
0.664586 -0.0112561 0.000858291
0.739546 -0.00221579 0.000204022
0.750401 -0.000472599 4.57394e-05
0.752516 -0.000103862 1.00926e-05
0.75302 -2.88925e-05 -2.48534e-06
0.753859 -4.78596e-05 -5.18435e-05
0.765283 -0.00361792 -0.00206893
0 0 0
0 0 0
0.730166 -0.14971 -0.0013051
0.709364 -0.0218858 0.000700359
0.750116 -0.00412795 0.000178435
0.759952 -0.000866233 4.52086e-05
0.762078 -0.000189931 1.03187e-05
0.762589 -5.19406e-05 -2.67322e-06
0.763356 -0.000126922 -6.00671e-05
0.771996 -0.00338241 -0.00214498
0 0 0
0 0 0
-0.0785243 -0.214106 -0.000184428
0.684383 -0.0313057 -1.73765e-06
0.75101 -0.00595642 0.000143844
0.761251 -0.00125025 4.20504e-05
0.763272 -0.000274287 9.72957e-06
0.76375 -7.36397e-05 -3.07021e-06
0.764369 -0.00017734 -6.70149e-05
0.772862 -0.00282413 -0.00217041
0.379755 -0.01583 -0.0339423
0.745442 0.00853708 -0.024668
0.731509 -0.245894 0.0114653
0.713095 -0.0410272 0.00119146
0.753248 -0.00767135 0.000183543
0.761643 -0.00160347 3.95423e-05
0.763429 -0.000351799 8.73514e-06
0.763854 -9.24332e-05 -3.54857e-06
0.764344 -0.000197246 -7.05042e-05
0.773058 -0.00228021 -0.00218164
0.464223 -0.042361 -0.042386
0.909424 0.0178377 -0.0267795
0.881049 -0.239256 0.0165144
0.738441 -0.0472248 0.00215375
0.755627 -0.00907598 0.000208002
0.762007 -0.00190954 3.51134e-05
0.763507 -0.00041964 7.39098e-06
0.763869 -0.000107581 -4.08592e-06
0.764253 -0.000194108 -7.26195e-05
0.773176 -0.00179018 -0.00218896
0.512079 -0.0576326 -0.0481866
0.933112 0.0169588 -0.0235936
0.909141 -0.222319 0.0122104
0.752423 -0.0505894 0.0018407
0.757752 -0.0101497 0.000171254
0.762403 -0.00215996 2.7557e-05
0.763591 -0.000475859 5.74968e-06
0.76388 -0.000118704 -4.6412e-06
0.76418 -0.00017375 -7.39378e-05
0.773266 -0.00134671 -0.0021938
0.551169 -0.0617232 -0.0527468
0.932102 0.0133971 -0.0205614
0.910689 -0.201744 0.00699477
0.762442 -0.0518007 0.00121991
0.75988 -0.0108912 0.000120464
0.762837 -0.00234851 1.92051e-05
0.763683 -0.000518931 3.95025e-06
0.763895 -0.000125664 -5.19047e-06
0.764128 -0.000140848 -7.47699e-05
0.773332 -0.000938788 -0.00219693
0.582935 -0.0567573 -0.056424
0.927991 0.0100396 -0.0186826
0.908428 -0.180016 0.00370369
0.771145 -0.051294 0.000718802
0.762065 -0.0112985 7.04757e-05
0.763299 -0.00247075 1.07578e-05
0.763783 -0.000547738 2.07026e-06
0.763912 -0.000128507 -5.71791e-06
0.764096 -9.92706e-05 -7.52865e-05
0.773376 -0.000555731 -0.0021988
0.60743 -0.0447238 -0.0594308
0.923997 0.0079461 -0.0176672
0.905829 -0.158647 0.00164181
0.778764 -0.0494446 0.000369104