# vtk DataFile Version 2.0
TestTestTest
ASCII

DATASET STRUCTURED_GRID
DIMENSIONS 11 21 11
POINTS 2541 float
0 0 0
0.5 0 0
1 0 0
1.5 0 0
2 0 0
2.5 0 0
3 0 0
3.5 0 0
4 0 0
4.5 0 0
5 0 0
0 0.05 0
0.5 0.05 0
1 0.05 0
1.5 0.05 0
2 0.05 0
2.5 0.05 0
3 0.05 0
3.5 0.05 0
4 0.05 0
4.5 0.05 0
5 0.05 0
0 0.1 0
0.5 0.1 0
1 0.1 0
1.5 0.1 0
2 0.1 0
2.5 0.1 0
3 0.1 0
3.5 0.1 0
4 0.1 0
4.5 0.1 0
5 0.1 0
0 0.15 0
0.5 0.15 0
1 0.15 0
1.5 0.15 0
2 0.15 0
2.5 0.15 0
3 0.15 0
3.5 0.15 0
4 0.15 0
4.5 0.15 0
5 0.15 0
0 0.2 0
0.5 0.2 0
1 0.2 0
1.5 0.2 0
2 0.2 0
2.5 0.2 0
3 0.2 0
3.5 0.2 0
4 0.2 0
4.5 0.2 0
5 0.2 0
0 0.25 0
0.5 0.25 0
1 0.25 0
1.5 0.25 0
2 0.25 0
2.5 0.25 0
3 0.25 0
3.5 0.25 0
4 0.25 0
4.5 0.25 0
5 0.25 0
0 0.3 0
0.5 0.3 0
1 0.3 0
1.5 0.3 0
2 0.3 0
2.5 0.3 0
3 0.3 0
3.5 0.3 0
4 0.3 0
4.5 0.3 0
5 0.3 0
0 0.35 0
0.5 0.35 0
1 0.35 0
1.5 0.35 0
2 0.35 0
2.5 0.35 0
3 0.35 0
3.5 0.35 0
4 0.35 0
4.5 0.35 0
5 0.35 0
0 0.4 0
0.5 0.4 0
1 0.4 0
1.5 0.4 0
2 0.4 0
2.5 0.4 0
3 0.4 0
3.5 0.4 0
4 0.4 0
4.5 0.4 0
5 0.4 0
0 0.45 0
0.5 0.45 0
1 0.45 0
1.5 0.45 0
2 0.45 0
2.5 0.45 0
3 0.45 0
3.5 0.45 0
4 0.45 0
4.5 0.45 0
5 0.45 0
0 0.5 0
0.5 0.5 0
1 0.5 0
1.5 0.5 0
2 0.5 0
2.5 0.5 0
3 0.5 0
3.5 0.5 0
4 0.5 0
4.5 0.5 0
5 0.5 0
0 0.55 0
0.5 0.55 0
1 0.55 0
1.5 0.55 0
2 0.55 0
2.5 0.55 0
3 0.55 0
3.5 0.55 0
4 0.55 0
4.5 0.55 0
5 0.55 0
0 0.6 0
0.5 0.6 0
1 0.6 0
1.5 0.6 0
2 0.6 0
2.5 0.6 0
3 0.6 0
3.5 0.6 0
4 0.6 0
4.5 0.6 0
5 0.6 0
0 0.65 0
0.5 0.65 0
1 0.65 0
1.5 0.65 0
2 0.65 0
2.5 0.65 0
3 0.65 0
3.5 0.65 0
4 0.65 0
4.5 0.65 0
5 0.65 0
0 0.7 0
0.5 0.7 0
1 0.7 0
1.5 0.7 0
2 0.7 0
2.5 0.7 0
3 0.7 0
3.5 0.7 0
4 0.7 0
4.5 0.7 0
5 0.7 0
0 0.75 0
0.5 0.75 0
1 0.75 0
1.5 0.75 0
2 0.75 0
2.5 0.75 0
3 0.75 0
3.5 0.75 0
4 0.75 0
4.5 0.75 0
5 0.75 0
0 0.8 0
0.5 0.8 0
1 0.8 0
1.5 0.8 0
2 0.8 0
2.5 0.8 0
3 0.8 0
3.5 0.8 0
4 0.8 0
4.5 0.8 0
5 0.8 0
0 0.85 0
0.5 0.85 0
1 0.85 0
1.5 0.85 0
2 0.85 0
2.5 0.85 0
3 0.85 0
3.5 0.85 0
4 0.85 0
4.5 0.85 0
5 0.85 0
0 0.9 0
0.5 0.9 0
1 0.9 0
1.5 0.9 0
2 0.9 0
2.5 0.9 0
3 0.9 0
3.5 0.9 0
4 0.9 0
4.5 0.9 0
5 0.9 0
0 0.95 0
0.5 0.95 0
1 0.95 0
1.5 0.95 0
2 0.95 0
2.5 0.95 0
3 0.95 0
3.5 0.95 0
4 0.95 0
4.5 0.95 0
5 0.95 0
0 1 0
0.5 1 0
1 1 0
1.5 1 0
2 1 0
2.5 1 0
3 1 0
3.5 1 0
4 1 0
4.5 1 0
5 1 0
0 0 0.1
0.5 0 0.1
1 0 0.1
1.5 0 0.1
2 0 0.1
2.5 0 0.1
3 0 0.1
3.5 0 0.1
4 0 0.1
4.5 0 0.1
5 0 0.1
0 0.05 0.1
0.5 0.05 0.1
1 0.05 0.1
1.5 0.05 0.1
2 0.05 0.1
2.5 0.05 0.1
3 0.05 0.1
3.5 0.05 0.1
4 0.05 0.1
4.5 0.05 0.1
5 0.05 0.1
0 0.1 0.1
0.5 0.1 0.1
1 0.1 0.1
1.5 0.1 0.1
2 0.1 0.1
2.5 0.1 0.1
3 0.1 0.1
3.5 0.1 0.1
4 0.1 0.1
4.5 0.1 0.1
5 0.1 0.1
0 0.15 0.1
0.5 0.15 0.1
1 0.15 0.1
1.5 0.15 0.1
2 0.15 0.1
2.5 0.15 0.1
3 0.15 0.1
3.5 0.15 0.1
4 0.15 0.1
4.5 0.15 0.1
5 0.15 0.1
0 0.2 0.1
0.5 0.2 0.1
1 0.2 0.1
1.5 0.2 0.1
2 0.2 0.1
2.5 0.2 0.1
3 0.2 0.1
3.5 0.2 0.1
4 0.2 0.1
4.5 0.2 0.1
5 0.2 0.1
0 0.25 0.1
0.5 0.25 0.1
1 0.25 0.1
1.5 0.25 0.1
2 0.25 0.1
2.5 0.25 0.1
3 0.25 0.1
3.5 0.25 0.1
4 0.25 0.1
4.5 0.25 0.1
5 0.25 0.1
0 0.3 0.1
0.5 0.3 0.1
1 0.3 0.1
1.5 0.3 0.1
2 0.3 0.1
2.5 0.3 0.1
3 0.3 0.1
3.5 0.3 0.1
4 0.3 0.1
4.5 0.3 0.1
5 0.3 0.1
0 0.35 0.1
0.5 0.35 0.1
1 0.35 0.1
1.5 0.35 0.1
2 0.35 0.1
2.5 0.35 0.1
3 0.35 0.1
3.5 0.35 0.1
4 0.35 0.1
4.5 0.35 0.1
5 0.35 0.1
0 0.4 0.1
0.5 0.4 0.1
1 0.4 0.1
1.5 0.4 0.1
2 0.4 0.1
2.5 0.4 0.1
3 0.4 0.1
3.5 0.4 0.1
4 0.4 0.1
4.5 0.4 0.1
5 0.4 0.1
0 0.45 0.1
0.5 0.45 0.1
1 0.45 0.1
1.5 0.45 0.1
2 0.45 0.1
2.5 0.45 0.1
3 0.45 0.1
3.5 0.45 0.1
4 0.45 0.1
4.5 0.45 0.1
5 0.45 0.1
0 0.5 0.1
0.5 0.5 0.1
1 0.5 0.1
1.5 0.5 0.1
2 0.5 0.1
2.5 0.5 0.1
3 0.5 0.1
3.5 0.5 0.1
4 0.5 0.1
4.5 0.5 0.1
5 0.5 0.1
0 0.55 0.1
0.5 0.55 0.1
1 0.55 0.1
1.5 0.55 0.1
2 0.55 0.1
2.5 0.55 0.1
3 0.55 0.1
3.5 0.55 0.1
4 0.55 0.1
4.5 0.55 0.1
5 0.55 0.1
0 0.6 0.1
0.5 0.6 0.1
1 0.6 0.1
1.5 0.6 0.1
2 0.6 0.1
2.5 0.6 0.1
3 0.6 0.1
3.5 0.6 0.1
4 0.6 0.1
4.5 0.6 0.1
5 0.6 0.1
0 0.65 0.1
0.5 0.65 0.1
1 0.65 0.1
1.5 0.65 0.1
2 0.65 0.1
2.5 0.65 0.1
3 0.65 0.1
3.5 0.65 0.1
4 0.65 0.1
4.5 0.65 0.1
5 0.65 0.1
0 0.7 0.1
0.5 0.7 0.1
1 0.7 0.1
1.5 0.7 0.1
2 0.7 0.1
2.5 0.7 0.1
3 0.7 0.1
3.5 0.7 0.1
4 0.7 0.1
4.5 0.7 0.1
5 0.7 0.1
0 0.75 0.1
0.5 0.75 0.1
1 0.75 0.1
1.5 0.75 0.1
2 0.75 0.1
2.5 0.75 0.1
3 0.75 0.1
3.5 0.75 0.1
4 0.75 0.1
4.5 0.75 0.1
5 0.75 0.1
0 0.8 0.1
0.5 0.8 0.1
1 0.8 0.1
1.5 0.8 0.1
2 0.8 0.1
2.5 0.8 0.1
3 0.8 0.1
3.5 0.8 0.1
4 0.8 0.1
4.5 0.8 0.1
5 0.8 0.1
0 0.85 0.1
0.5 0.85 0.1
1 0.85 0.1
1.5 0.85 0.1
2 0.85 0.1
2.5 0.85 0.1
3 0.85 0.1
3.5 0.85 0.1
4 0.85 0.1
4.5 0.85 0.1
5 0.85 0.1
0 0.9 0.1
0.5 0.9 0.1
1 0.9 0.1
1.5 0.9 0.1
2 0.9 0.1
2.5 0.9 0.1
3 0.9 0.1
3.5 0.9 0.1
4 0.9 0.1
4.5 0.9 0.1
5 0.9 0.1
0 0.95 0.1
0.5 0.95 0.1
1 0.95 0.1
1.5 0.95 0.1
2 0.95 0.1
2.5 0.95 0.1
3 0.95 0.1
3.5 0.95 0.1
4 0.95 0.1
4.5 0.95 0.1
5 0.95 0.1
0 1 0.1
0.5 1 0.1
1 1 0.1
1.5 1 0.1
2 1 0.1
2.5 1 0.1
3 1 0.1
3.5 1 0.1
4 1 0.1
4.5 1 0.1
5 1 0.1
0 0 0.2
0.5 0 0.2
1 0 0.2
1.5 0 0.2
2 0 0.2
2.5 0 0.2
3 0 0.2
3.5 0 0.2
4 0 0.2
4.5 0 0.2
5 0 0.2
0 0.05 0.2
0.5 0.05 0.2
1 0.05 0.2
1.5 0.05 0.2
2 0.05 0.2
2.5 0.05 0.2
3 0.05 0.2
3.5 0.05 0.2
4 0.05 0.2
4.5 0.05 0.2
5 0.05 0.2
0 0.1 0.2
0.5 0.1 0.2
1 0.1 0.2
1.5 0.1 0.2
2 0.1 0.2
2.5 0.1 0.2
3 0.1 0.2
3.5 0.1 0.2
4 0.1 0.2
4.5 0.1 0.2
5 0.1 0.2
0 0.15 0.2
0.5 0.15 0.2
1 0.15 0.2
1.5 0.15 0.2
2 0.15 0.2
2.5 0.15 0.2
3 0.15 0.2
3.5 0.15 0.2
4 0.15 0.2
4.5 0.15 0.2
5 0.15 0.2
0 0.2 0.2
0.5 0.2 0.2
1 0.2 0.2
1.5 0.2 0.2
2 0.2 0.2
2.5 0.2 0.2
3 0.2 0.2
3.5 0.2 0.2
4 0.2 0.2
4.5 0.2 0.2
5 0.2 0.2
0 0.25 0.2
0.5 0.25 0.2
1 0.25 0.2
1.5 0.25 0.2
2 0.25 0.2
2.5 0.25 0.2
3 0.25 0.2
3.5 0.25 0.2
4 0.25 0.2
4.5 0.25 0.2
5 0.25 0.2
0 0.3 0.2
0.5 0.3 0.2
1 0.3 0.2
1.5 0.3 0.2
2 0.3 0.2
2.5 0.3 0.2
3 0.3 0.2
3.5 0.3 0.2
4 0.3 0.2
4.5 0.3 0.2
5 0.3 0.2
0 0.35 0.2
0.5 0.35 0.2
1 0.35 0.2
1.5 0.35 0.2
2 0.35 0.2
2.5 0.35 0.2
3 0.35 0.2
3.5 0.35 0.2
4 0.35 0.2
4.5 0.35 0.2
5 0.35 0.2
0 0.4 0.2
0.5 0.4 0.2
1 0.4 0.2
1.5 0.4 0.2
2 0.4 0.2
2.5 0.4 0.2
3 0.4 0.2
3.5 0.4 0.2
4 0.4 0.2
4.5 0.4 0.2
5 0.4 0.2
0 0.45 0.2
0.5 0.45 0.2
1 0.45 0.2
1.5 0.45 0.2
2 0.45 0.2
2.5 0.45 0.2
3 0.45 0.2
3.5 0.45 0.2
4 0.45 0.2
4.5 0.45 0.2
5 0.45 0.2
0 0.5 0.2
0.5 0.5 0.2
1 0.5 0.2
1.5 0.5 0.2
2 0.5 0.2
2.5 0.5 0.2
3 0.5 0.2
3.5 0.5 0.2
4 0.5 0.2
4.5 0.5 0.2
5 0.5 0.2
0 0.55 0.2
0.5 0.55 0.2
1 0.55 0.2
1.5 0.55 0.2
2 0.55 0.2
2.5 0.55 0.2
3 0.55 0.2
3.5 0.55 0.2
4 0.55 0.2
4.5 0.55 0.2
5 0.55 0.2
0 0.6 0.2
0.5 0.6 0.2
1 0.6 0.2
1.5 0.6 0.2
2 0.6 0.2
2.5 0.6 0.2
3 0.6 0.2
3.5 0.6 0.2
4 0.6 0.2
4.5 0.6 0.2
5 0.6 0.2
0 0.65 0.2
0.5 0.65 0.2
1 0.65 0.2
1.5 0.65 0.2
2 0.65 0.2
2.5 0.65 0.2
3 0.65 0.2
3.5 0.65 0.2
4 0.65 0.2
4.5 0.65 0.2
5 0.65 0.2
0 0.7 0.2
0.5 0.7 0.2
1 0.7 0.2
1.5 0.7 0.2
2 0.7 0.2
2.5 0.7 0.2
3 0.7 0.2
3.5 0.7 0.2
4 0.7 0.2
4.5 0.7 0.2
5 0.7 0.2
0 0.75 0.2
0.5 0.75 0.2
1 0.75 0.2
1.5 0.75 0.2
2 0.75 0.2
2.5 0.75 0.2
3 0.75 0.2
3.5 0.75 0.2
4 0.75 0.2
4.5 0.75 0.2
5 0.75 0.2
0 0.8 0.2
0.5 0.8 0.2
1 0.8 0.2
1.5 0.8 0.2
2 0.8 0.2
2.5 0.8 0.2
3 0.8 0.2
3.5 0.8 0.2
4 0.8 0.2
4.5 0.8 0.2
5 0.8 0.2
0 0.85 0.2
0.5 0.85 0.2
1 0.85 0.2
1.5 0.85 0.2
2 0.85 0.2
2.5 0.85 0.2
3 0.85 0.2
3.5 0.85 0.2
4 0.85 0.2
4.5 0.85 0.2
5 0.85 0.2
0 0.9 0.2
0.5 0.9 0.2
1 0.9 0.2
1.5 0.9 0.2
2 0.9 0.2
2.5 0.9 0.2
3 0.9 0.2
3.5 0.9 0.2
4 0.9 0.2
4.5 0.9 0.2
5 0.9 0.2
0 0.95 0.2
0.5 0.95 0.2
1 0.95 0.2
1.5 0.95 0.2
2 0.95 0.2
2.5 0.95 0.2
3 0.95 0.2
3.5 0.95 0.2
4 0.95 0.2
4.5 0.95 0.2
5 0.95 0.2
0 1 0.2
0.5 1 0.2
1 1 0.2
1.5 1 0.2
2 1 0.2
2.5 1 0.2
3 1 0.2
3.5 1 0.2
4 1 0.2
4.5 1 0.2
5 1 0.2
0 0 0.3
0.5 0 0.3
1 0 0.3
1.5 0 0.3
2 0 0.3
2.5 0 0.3
3 0 0.3
3.5 0 0.3
4 0 0.3
4.5 0 0.3
5 0 0.3
0 0.05 0.3
0.5 0.05 0.3
1 0.05 0.3
1.5 0.05 0.3
2 0.05 0.3
2.5 0.05 0.3
3 0.05 0.3
3.5 0.05 0.3
4 0.05 0.3
4.5 0.05 0.3
5 0.05 0.3
0 0.1 0.3
0.5 0.1 0.3
1 0.1 0.3
1.5 0.1 0.3
2 0.1 0.3
2.5 0.1 0.3
3 0.1 0.3
3.5 0.1 0.3
4 0.1 0.3
4.5 0.1 0.3
5 0.1 0.3
0 0.15 0.3
0.5 0.15 0.3
1 0.15 0.3
1.5 0.15 0.3
2 0.15 0.3
2.5 0.15 0.3
3 0.15 0.3
3.5 0.15 0.3
4 0.15 0.3
4.5 0.15 0.3
5 0.15 0.3
0 0.2 0.3
0.5 0.2 0.3
1 0.2 0.3
1.5 0.2 0.3
2 0.2 0.3
2.5 0.2 0.3
3 0.2 0.3
3.5 0.2 0.3
4 0.2 0.3
4.5 0.2 0.3
5 0.2 0.3
0 0.25 0.3
0.5 0.25 0.3
1 0.25 0.3
1.5 0.25 0.3
2 0.25 0.3
2.5 0.25 0.3
3 0.25 0.3
3.5 0.25 0.3
4 0.25 0.3
4.5 0.25 0.3
5 0.25 0.3
0 0.3 0.3
0.5 0.3 0.3
1 0.3 0.3
1.5 0.3 0.3
2 0.3 0.3
2.5 0.3 0.3
3 0.3 0.3
3.5 0.3 0.3
4 0.3 0.3
4.5 0.3 0.3
5 0.3 0.3
0 0.35 0.3
0.5 0.35 0.3
1 0.35 0.3
1.5 0.35 0.3
2 0.35 0.3
2.5 0.35 0.3
3 0.35 0.3
3.5 0.35 0.3
4 0.35 0.3
4.5 0.35 0.3
5 0.35 0.3
0 0.4 0.3
0.5 0.4 0.3
1 0.4 0.3
1.5 0.4 0.3
2 0.4 0.3
2.5 0.4 0.3
3 0.4 0.3
3.5 0.4 0.3
4 0.4 0.3
4.5 0.4 0.3
5 0.4 0.3
0 0.45 0.3
0.5 0.45 0.3
1 0.45 0.3
1.5 0.45 0.3
2 0.45 0.3
2.5 0.45 0.3
3 0.45 0.3
3.5 0.45 0.3
4 0.45 0.3
4.5 0.45 0.3
5 0.45 0.3
0 0.5 0.3
0.5 0.5 0.3
1 0.5 0.3
1.5 0.5 0.3
2 0.5 0.3
2.5 0.5 0.3
3 0.5 0.3
3.5 0.5 0.3
4 0.5 0.3
4.5 0.5 0.3
5 0.5 0.3
0 0.55 0.3
0.5 0.55 0.3
1 0.55 0.3
1.5 0.55 0.3
2 0.55 0.3
2.5 0.55 0.3
3 0.55 0.3
3.5 0.55 0.3
4 0.55 0.3
4.5 0.55 0.3
5 0.55 0.3
0 0.6 0.3
0.5 0.6 0.3
1 0.6 0.3
1.5 0.6 0.3
2 0.6 0.3
2.5 0.6 0.3
3 0.6 0.3
3.5 0.6 0.3
4 0.6 0.3
4.5 0.6 0.3
5 0.6 0.3
0 0.65 0.3
0.5 0.65 0.3
1 0.65 0.3
1.5 0.65 0.3
2 0.65 0.3
2.5 0.65 0.3
3 0.65 0.3
3.5 0.65 0.3
4 0.65 0.3
4.5 0.65 0.3
5 0.65 0.3
0 0.7 0.3
0.5 0.7 0.3
1 0.7 0.3
1.5 0.7 0.3
2 0.7 0.3
2.5 0.7 0.3
3 0.7 0.3
3.5 0.7 0.3
4 0.7 0.3
4.5 0.7 0.3
5 0.7 0.3
0 0.75 0.3
0.5 0.75 0.3
1 0.75 0.3
1.5 0.75 0.3
2 0.75 0.3
2.5 0.75 0.3
3 0.75 0.3
3.5 0.75 0.3
4 0.75 0.3
4.5 0.75 0.3
5 0.75 0.3
0 0.8 0.3
0.5 0.8 0.3
1 0.8 0.3
1.5 0.8 0.3
2 0.8 0.3
2.5 0.8 0.3
3 0.8 0.3
3.5 0.8 0.3
4 0.8 0.3
4.5 0.8 0.3
5 0.8 0.3
0 0.85 0.3
0.5 0.85 0.3
1 0.85 0.3
1.5 0.85 0.3
2 0.85 0.3
2.5 0.85 0.3
3 0.85 0.3
3.5 0.85 0.3
4 0.85 0.3
4.5 0.85 0.3
5 0.85 0.3
0 0.9 0.3
0.5 0.9 0.3
1 0.9 0.3
1.5 0.9 0.3
2 0.9 0.3
2.5 0.9 0.3
3 0.9 0.3
3.5 0.9 0.3
4 0.9 0.3
4.5 0.9 0.3
5 0.9 0.3
0 0.95 0.3
0.5 0.95 0.3
1 0.95 0.3
1.5 0.95 0.3
2 0.95 0.3
2.5 0.95 0.3
3 0.95 0.3
3.5 0.95 0.3
4 0.95 0.3
4.5 0.95 0.3
5 0.95 0.3
0 1 0.3
0.5 1 0.3
1 1 0.3
1.5 1 0.3
2 1 0.3
2.5 1 0.3
3 1 0.3
3.5 1 0.3
4 1 0.3
4.5 1 0.3
5 1 0.3
0 0 0.4
[...]
CELL_DATA 2000
SCALARS pressure float 1
LOOKUP_TABLE default
0
0
0.88915
1.0261
0.846342
0.682449
0.521334
0.360921
0.199854
0.0244108
0
0
0.889246
1.01806
0.845698
0.682327
0.521306
0.360917
0.1999
0.0272424
0
0
0.850112
1.01347
0.844852
0.682171
0.521269
0.360915
0.200003
0.0297496
0
0
0.843319
1.0029
0.843894
0.681993
0.521227
0.360913
0.200138
0.0318289
1.82749
1.98262
0.858681
0.993887
0.84288
0.681799
0.521179
0.360912
0.200282
0.0335203
1.82212
1.96409
0.899182
0.987948
0.841919
0.681597
0.521126
0.36091
0.200421
0.0348664
1.81192
1.93889
0.94672
0.984899
0.841081
0.681394
0.521071
0.360905
0.200544
0.0359023
1.79786
1.91198
0.994931
0.984037
0.8404
0.681195
0.521013
0.360898
0.200641
0.0366555
1.78296
1.88593
1.03957
0.984772
0.839882
0.681006
0.520955
0.360887
0.200707
0.0371462
1.76941
1.86198
1.07956
0.986603
0.839515
0.680827
0.520896
0.360873
0.200738
0.0373878
1.75811
1.84064
1.11458
0.989121
0.839276
0.680661
0.520838
0.360855
0.200733
0.0373868
1.7497
1.822
1.14472
0.991995
0.839135
0.680508
0.520781
0.360834
0.200692
0.0371433
1.74477
1.80601
1.17023
0.994958
0.839063
0.680367
0.520725
0.36081
0.200616
0.0366507
1.74349
1.79256
1.19142
0.997794
0.83903
0.680236
0.520673
0.360784
0.20051
0.0358957
1.74559
1.78153
1.20862
1.00034
0.839006
0.680114
0.520623
0.360757
0.200378
0.0348582
1.75077
1.77284
1.22215
1.00245
0.838968
0.68
0.520577
0.360731
0.200231
0.0335105
1.75844
1.76644
1.23228
1.00404
0.838894
0.679892
0.520534
0.360706
0.20008
0.0318177
1.76673
1.76227
1.23927
1.00503
0.838767
0.679789
0.520497
0.360685
0.199939
0.0297372
1.77289
1.76034
1.24331
1.00538
0.838581
0.679693
0.520465
0.360669
0.199831
0.027229
1.77618
1.76036
1.24439
1.0051
0.838345
0.679607
0.52044
0.360659
0.199782
0.0243966
0
0
0.895031
1.02171
0.845978
0.682367
0.521316
0.360933
0.200075
0.0292202
0
0
0.893903
1.01491
0.845209
0.682224
0.521284
0.360928
0.200134
0.0327655
0
0
0.853357
1.01077
0.844407
0.68207
0.521248
0.360926
0.200255
0.0353862
0
0
0.873219
1.00265
0.843473
0.681898
0.521206
0.360926
0.200399
0.0375181
1.81039
2.0267
0.795555
0.991627
0.842495
0.681714
0.521161
0.360926
0.20055
0.0392419
1.80415
2.01524
0.842632
0.983846
0.841575
0.681525
0.521111
0.360924
0.200693
0.0406084
1.79428
1.9716
0.910206
0.981709
0.840803
0.681337
0.521059
0.360921
0.200818
0.0416571
1.78182
1.93342
0.971658
0.981966
0.8402
0.681154
0.521005
0.360915
0.200916
0.0424183
1.76752
1.90081
1.02518
0.983503
0.839762
0.680981
0.520951
0.360905
0.200984
0.0429137
1.75297
1.87304
1.07082
0.985906
0.839468
0.680819
0.520896
0.360892
0.201016
0.0431575
1.74083
1.84925
1.10949
0.988834
0.839294
0.680669
0.520841
0.360875
0.201011
0.0431566
1.73203
1.8289
1.14199
0.992002
0.83921
0.680531
0.520788
0.360855
0.200969
0.042911
1.72696
1.81154
1.16904
0.995175
0.839187
0.680403
0.520736
0.360831
0.200893
0.0424139
1.72578
1.79684
1.19121
0.998162
0.839194
0.680285
0.520687
0.360806
0.200785
0.041651
1.72849
1.78456
1.209
1.00081
0.839205
0.680174
0.52064
0.360779
0.200652
0.0406007
1.73443
1.77445
1.22282
1.003
0.839193
0.680069
0.520596
0.360753
0.200501
0.0392327
1.74131
1.76654
1.23306
1.00464
0.83914
0.679968
0.520556
0.360729
0.200344
0.0375075
1.74786
1.76105
1.23999
1.00566
0.839029
0.67987
0.52052
0.360707
0.200194
0.0353745
1.75369
1.75813
1.24384
1.006
0.838846
0.679774
0.520488
0.36069
0.200068
0.0327528
1.75818
1.75834
1.24471
1.00559
0.838564
0.679675
0.520459
0.36068
0.200005
0.0292066
0
0
0.902148
1.0195
0.845756
0.682304
0.521302
0.360955
0.200389
0.0326728
0
0
0.899208
1.01375
0.844997
0.68216
0.521269
0.360951
0.200455
0.0363254
0
0
0.866528
1.01076
0.844245
0.682009
0.521234
0.36095
0.200583
0.0390164
0
0
0.887418
1.00441
0.84338
0.681843
0.521194
0.360951
0.200734
0.0411973
1.79397
2.03903
0.768285
0.993284
0.842441
0.681667
0.521149
0.360951
0.20089
0.0429547
1.78682
2.06452
0.775452
0.98266
0.841499
0.681485
0.521102
0.360951
0.201037
0.044344
1.77898
2.01991
0.86238
0.978266
0.840677
0.681305
0.521053
0.360948
0.201164
0.0454081
1.77415
1.96933
0.941876
0.978792
0.840055
0.68113
0.521001
0.360943
0.201265
0.0461794
1.77061
1.92765
1.00587
0.981074
0.839632
0.680966
0.520949
0.360934
0.201334
0.0466808
1.76629
1.89335
1.05848
0.984115
0.83937
0.680814
0.520897
0.360922
0.201366
0.0469274
1.76057
1.86513
1.1019
0.987555
0.839233
0.680673
0.520846
0.360906
0.201362
0.0469266
1.75426
1.84169
1.13767
0.99113
0.839187
0.680544
0.520795
0.360886
0.20132
0.0466782
1.74901
1.82208
1.16697
0.994625
0.839201
0.680426
0.520746
0.360863
0.201242
0.0461751
1.74493
1.80568
1.19066
0.997866
0.839242
0.680316
0.520699
0.360838
0.201133
0.0454023
1.74064
1.79202
1.20944
1.00071
0.839283
0.680213
0.520654
0.360812
0.200997
0.0443366
1.73578
1.78074
1.22379
1.00306
0.839299
0.680114
0.520612
0.360785
0.200843
0.0429459
1.73145
1.77139
1.23411
1.00482
0.839272
0.680019
0.520573
0.36076
0.20068
0.0411872
1.7303
1.76412
1.24089
1.00593
0.83918
0.679925
0.520537
0.360739
0.200523
0.0390052
1.73442
1.7598
1.24457
1.00631
0.839004
0.67983
0.520506
0.360721
0.20039
0.0363131
1.74039
1.75934
1.24532
1.0059
0.838719
0.679729
0.520476
0.36071
0.200321
0.0326597
0
0
0.90334
1.01899
0.845657
0.682266
0.521293
0.360978
0.200658
0.0348254
0
0
0.899704
1.01356
0.844914
0.682122
0.521261
0.360974
0.200725
0.0385008
0
0
0.865707
1.01109
0.844194
0.681974
0.521226
0.360974
0.200857
0.0412178
0
0
0.880342
1.00544
0.843377
0.681814
0.521187
0.360975
0.201011
0.0434219
1.78597
2.06383
0.757204
0.994681
0.842489
0.681644
0.521144
0.360976
0.20117
0.0451981
1.77878
2.09544
0.746216
0.983634
0.841579
0.681469
0.521098
0.360976
0.201319
0.046602
1.77334
2.05375
0.825466
0.977948
0.84073
0.681293
0.52105
0.360974
0.201449
0.0476768
1.77526
1.99837
0.915354
0.977483
0.840041
0.681121
0.521
0.36097
0.201551
0.0484554
1.78417
1.9508
0.988783
0.979509
0.839566
0.680959
0.520949
0.360962
0.201621
0.0489615
1.79514
1.91097
1.04748
0.982587
0.839279
0.680809
0.520899
0.36095
0.201654
0.0492104
1.80224
1.87709
1.09507
0.986172
0.839134
0.680672
0.520849
0.360934
0.20165
0.0492096
1.8028
1.84896
1.13393
0.989943
0.839093
0.680547
0.5208
0.360914
0.201607
0.0489591
1.79742
1.82687
1.16552
0.993652
0.839118
0.680433
0.520752
0.360892
0.201529
0.0484513
1.7861
1.81021
1.19072
0.997125
0.839181
0.680328
0.520706
0.360867
0.201418
0.0476711
1.76846
1.7972
1.21018
1.00023
0.839257
0.68023
0.520663
0.360841
0.201281
0.0465949
1.74769
1.78598
1.22466
1.00282
0.839313
0.680138
0.520622
0.360814
0.201124
0.0451896
1.73049
1.77604
1.23494
1.00476
0.839318
0.680047
0.520584
0.360789
0.200958
0.0434121
1.72255
1.76787
1.24163
1.00598
0.839247
0.679957
0.520549
0.360768
0.200798
0.0412069
1.72452
1.76257
1.24521
1.00642
0.839083
0.679864
0.520518
0.36075
0.200662
0.0384889
1.73085
1.7616
1.24587
1.00602
0.838802
0.679764
0.520489
0.360738
0.200591
0.0348126
0
0
0.902144
1.01891
0.845625
0.682248
0.52129
0.360992
0.200808
0.0358523
0
0
0.897758
1.01356
0.844889
0.682106
0.521257
0.360989
0.200876
0.0395334
0
0
0.862011
1.01127
0.844185
0.681959
0.521222
0.360988
0.201009
0.0422589
0
0
0.874363
1.00584
0.84339
0.681801
0.521183
0.360989
0.201164
0.0444718
1.78325
2.0783
0.749517
0.995256
0.842525
0.681634
0.521141
0.360991
0.201324
0.0462559
1.77619
2.11114
0.736921
0.984249
0.84164
0.681463
0.521096
0.360991
0.201475
0.0476663
1.77283
2.06991
0.811855
0.978509
0.84081
0.681291
0.521049
0.36099
0.201606
0.0487462
1.77962
2.01358
0.900539
0.977857
0.840122
0.681123
0.521
0.360986
0.201709
0.0495285
1.79571
1.96361
0.977043
0.979454
0.839608
0.680961
0.52095
0.360978
0.201779
0.050037
1.8157
1.92045
1.0402
0.982034
0.839257
0.680809
0.5209
0.360966
0.201813
0.050287
1.83216
1.88295
1.09144
0.98528
0.839055
0.680669
0.520851
0.360951
0.201808
0.0502862
1.83833
1.85144
1.13264
0.988956
0.838984
0.680543
0.520802
0.360931
0.201766
0.0500345
1.83283
1.82785
1.16539
0.992806
0.839017
0.680431
0.520755
0.360909
0.201687
0.0495245
1.81567
1.81164
1.19098
0.996536
0.839113
0.68033
0.52071
0.360884
0.201576
0.0487406
1.78839
1.79941
1.21056
0.99987
0.839221
0.680237
0.520668
0.360858
0.201437
0.0476593
1.75829
1.78876
1.22509
1.00262
0.839303
0.680148
0.520627
0.360831
0.201279
0.0462475
1.7337
1.77886
1.23538
1.00467
0.839327
0.68006
0.52059
0.360806
0.201112
0.0444621
1.72085
1.77033
1.24205
1.00596
0.839269
0.679971
0.520555
0.360784
0.200951
0.0422482
1.72086
1.76454
1.24558
1.00643
0.839113
0.67988
0.520524
0.360767
0.200813
0.0395217
1.72721
1.76329
1.24619
1.00605
0.838835
0.67978
0.520495
0.360755
0.200742
0.0358397
0
0
0.902144
1.01891
0.845625
0.682248
0.52129
0.360992
0.200808
0.0358523
0
0
0.897758
1.01356
0.844889
0.682106
0.521257
0.360989
0.200876
0.0395334
0
0
0.862011
1.01127
0.844185
0.681959
0.521222
0.360988
0.201009
0.0422589
0
0
0.874363
1.00584
0.84339
0.681801
0.521183
0.360989
0.201164
0.0444718
1.78325
2.0783
0.749517
0.995256
0.842525
0.681634
0.521141
0.360991
0.201324
0.0462559
1.77619
2.11114
0.736921
0.984249
0.84164
0.681463
0.521096
0.360991
0.201475
0.0476663
1.77283
2.06991
0.811855
0.978509
0.84081
0.681291
0.521049
0.36099
0.201606
0.0487462
1.77962
2.01358
0.900539
0.977857
0.840122
0.681123
0.521
0.360986
0.201709
0.0495285
1.79571
1.96361
0.977043
0.979454
0.839608
0.680961
0.52095
0.360978
0.201779
0.050037
1.8157
1.92045
1.0402
0.982034
0.839257
0.680809
0.5209
0.360966
0.201813
0.050287
1.83216
1.88295
1.09144
0.98528
0.839055
0.680669
0.520851
0.360951
0.201808
0.0502862
1.83833
1.85144
1.13264
0.988956
0.838984
0.680543
0.520802
0.360931
0.201766
0.0500345
1.83283
1.82785
1.16539
0.992806
0.839017
0.680431
0.520755
0.360909
0.201687
0.0495245
1.81567
1.81164
1.19098
0.996536
0.839113
0.68033
0.52071
0.360884
0.201576
0.0487406
1.78839
1.79941
1.21056
0.99987
0.839221
0.680237
0.520668
0.360858
0.201437
0.0476593
1.75829
1.78876
1.22509
1.00262
0.839303
0.680148
0.520627
0.360831
0.201279
0.0462475
1.7337
1.77886
1.23538
1.00467
0.839327
0.68006
0.52059
0.360806
0.201112
0.0444621
1.72085
1.77033
1.24205
1.00596
0.839269
0.679971
0.520555
0.360784
0.200951
0.0422482
1.72086
1.76454
1.24558
1.00643
0.839113
0.67988
0.520524
0.360767
0.200813
0.0395217
1.72721
1.76329
1.24619
1.00605
0.838835
0.67978
0.520495
0.360755
0.200742
0.0358397
0
0
0.90334
1.01899
0.845657
0.682266
0.521293
0.360978
0.200658
0.0348254
0
0
0.899704
1.01356
0.844914
0.682122
0.521261
0.360974
0.200725
0.0385008
0
0
0.865707
1.01109
0.844194
0.681974
0.521226
0.360974
0.200857
0.0412178
0
0
0.880342
1.00544
0.843377
0.681814
0.521187
0.360975
0.201011
0.0434219
1.78597
2.06383
0.757204
0.994681
0.842489
0.681644
0.521144
0.360976
0.20117
0.0451981
1.77878
2.09544
0.746216
0.983634
0.841579
0.681469
0.521098
0.360976
0.201319
0.046602
1.77334
2.05375
0.825466
0.977948
0.84073
0.681293
0.52105
0.360974
0.201449
0.0476768
1.77526
1.99837
0.915354
0.977483
0.840041
0.681121
0.521
0.36097
0.201551
0.0484554
1.78417
1.9508
0.988783
0.979509
0.839566
0.680959
0.520949
0.360962
0.201621
0.0489615
1.79514
1.91097
1.04748
0.982587
0.839279
0.680809
0.520899
0.36095
0.201654
0.0492104
1.80224
1.87709
1.09507
0.986172
0.839134
0.680672
0.520849
0.360934
0.20165
0.0492096
1.8028
1.84896
1.13393
0.989943
0.839093
0.680547
0.5208
0.360914
0.201607
0.0489591
1.79742
1.82687
1.16552
0.993652
0.839118
0.680433
0.520752
0.360892
0.201529
0.0484513
1.7861
1.81021
1.19072
0.997125
0.839181
0.680328
0.520706
0.360867
0.201418
0.0476711
1.76846
1.7972
1.21018
1.00023
0.839257
0.68023
0.520663
0.360841
0.201281
0.0465949
1.74769
1.78598
1.22466
1.00282
0.839313
0.680138
0.520622
0.360814
0.201124
0.0451896
1.73049
1.77604
1.23494
1.00476
0.839318
0.680047
0.520584
0.360789
0.200958
0.0434121
1.72255
1.76787
1.24163
1.00598
0.839247
0.679957
0.520549
0.360768
0.200798
0.0412069
1.72452
1.76257
1.24521
1.00642
0.839083
0.679864
0.520518
0.36075
0.200662
0.0384889
1.73085
1.7616
1.24587
1.00602
0.838802
0.679764
0.520489
0.360738
0.200591
0.0348126
0
0
0.902148
1.0195
0.845756
0.682304
0.521302
0.360955
0.200389
0.0326728
0
0
0.899208
1.01375
0.844997
0.68216
0.521269
0.360951
0.200455
0.0363254
0
0
0.866528
1.01076
0.844245
0.682009
0.521234
0.36095
0.200583
0.0390164
0
0
0.887418
1.00441
0.84338
0.681843
0.521194
0.360951
0.200734
0.0411973
1.79397
2.03903
0.768285
0.993284
0.842441
0.681667
0.521149
0.360951
0.20089
0.0429547
1.78682
2.06452
0.775452
0.98266
0.841499
0.681485
0.521102
0.360951
0.201037
0.044344
1.77898
2.01991
0.86238
0.978266
0.840677
0.681305
0.521053
0.360948
0.201164
0.0454081
1.77415
1.96933
0.941876
0.978792
0.840055
0.68113
0.521001
0.360943
0.201265
0.0461794
1.77061
1.92765
1.00587
0.981074
0.839632
0.680966
0.520949
0.360934
0.201334
0.0466808
1.76629
1.89335
1.05848
0.984115
0.83937
0.680814
0.520897
0.360922
0.201366
0.0469274
1.76057
1.86513
1.1019
0.987555
0.839233
0.680673
0.520846
0.360906
0.201362
0.0469266
1.75426
1.84169
1.13767
0.99113
0.839187
0.680544
0.520795
0.360886
0.20132
0.0466782
1.74901
1.82208
1.16697
0.994625
0.839201
0.680426
0.520746
0.360863
0.201242
0.0461751
1.74493
1.80568
1.19066
0.997866
0.839242
0.680316
0.520699
0.360838
0.201133
0.0454023
1.74064
1.79202
1.20944
1.00071
0.839283
0.680213
0.520654
0.360812
0.200997
0.0443366
1.73578
1.78074
1.22379
1.00306
0.839299
0.680114
0.520612
0.360785
0.200843
0.0429459
1.73145
1.77139
1.23411
1.00482
0.839272
0.680019
0.520573
0.36076
0.20068
0.0411872
1.7303
1.76412
1.24089
1.00593
0.83918
0.679925
0.520537
0.360739
0.200523
0.0390052
1.73442
1.7598
1.24457
1.00631
0.839004
0.67983
0.520506
0.360721
0.20039
0.0363131
1.74039
1.75934
1.24532
1.0059
0.838719
0.679729
0.520476
0.36071
0.200321
0.0326597
0
0
0.895031
1.02171
0.845978
0.682367
0.521316
0.360933
0.200075
0.0292202
0
0
0.893903
1.01491
0.845209
0.682224
0.521284
0.360928
0.200134
0.0327655
0
0
0.853357
1.01077
0.844407
0.68207
0.521248
0.360926
0.200255
0.0353862
0
0
0.873219
1.00265
0.843473
0.681898
0.521206
0.360926
0.200399
0.0375181
1.81039
2.0267
0.795555
0.991627
0.842495
0.681714
0.521161
0.360926
0.20055
0.0392419
1.80415
2.01524
0.842632
0.983846
0.841575
0.681525
0.521111
0.360924
0.200693
0.0406084
1.79428
1.9716
0.910206
0.981709
0.840803
0.681337
0.521059
0.360921
0.200818
0.0416571
1.78182
1.93342
0.971658
0.981966
0.8402
0.681154
0.521005
0.360915
0.200916
0.0424183
1.76752
1.90081
1.02518
0.983503
0.839762
0.680981
0.520951
0.360905
0.200984
0.0429137
1.75297
1.87304
1.07082
0.985906
0.839468
0.680819
0.520896
0.360892
0.201016
0.0431575
1.74083
1.84925
1.10949
0.988834
0.839294
0.680669
0.520841
0.360875
0.201011
0.0431566
1.73203
1.8289
1.14199
0.992002
0.83921
0.680531
0.520788
0.360855
0.200969
0.042911
1.72696
1.81154
1.16904
0.995175
0.839187
0.680403
0.520736
0.360831
0.200893
0.0424139
1.72578
1.79684
1.19121
0.998162
0.839194
0.680285
0.520687
0.360806
0.200785
0.041651
1.72849
1.78456
1.209
1.00081
0.839205
0.680174
0.52064
0.360779
0.200652
0.0406007
1.73443
1.77445
1.22282
1.003
0.839193
0.680069
0.520596
0.360753
0.200501
0.0392327
1.74131
1.76654
1.23306
1.00464
0.83914
0.679968
0.520556
0.360729
0.200344
0.0375075
1.74786
1.76105
1.23999
1.00566
0.839029
0.67987
0.52052
0.360707
0.200194
0.0353745
1.75369
1.75813
1.24384
1.006
0.838846
0.679774
0.520488
0.36069
0.200068
0.0327528
1.75818
1.75834
1.24471
1.00559
0.838564
0.679675
0.520459
0.36068
0.200005
0.0292066
0
0
0.88915
1.0261
0.846342
0.682449
0.521334
0.360921
0.199854
0.0244108
0
0
0.889246
1.01806
0.845698
0.682327
0.521306
0.360917
0.1999
0.0272424
0
0
0.850112
1.01347
0.844852
0.682171
0.521269
0.360915
0.200003
0.0297496
0
0
0.843319
1.0029
0.843894
0.681993
0.521227
0.360913
0.200138
0.0318289
1.82749
1.98262
0.858681
0.993887
0.84288
0.681799
0.521179
0.360912
0.200282
0.0335203
1.82212
1.96409
0.899182
0.987948
0.841919
0.681597
0.521126
0.36091
0.200421
0.0348664
1.81192
1.93889
0.94672
0.984899
0.841081
0.681394
0.521071
0.360905
0.200544
0.0359023
1.79786
1.91198
0.994931
0.984037
0.8404
0.681195
0.521013
0.360898
0.200641
0.0366555
1.78296
1.88593
1.03957
0.984772
0.839882
0.681006
0.520955
0.360887
0.200707
0.0371462
1.76941
1.86198
1.07956
0.986603
0.839515
0.680827
0.520896
0.360873
0.200738
0.0373878
1.75811
1.84064
1.11458
0.989121
0.839276
0.680661
0.520838
0.360855
0.200733
0.0373868
1.7497
1.822
1.14472
0.991995
0.839135
0.680508
0.520781
0.360834
0.200692
0.0371433
1.74477
1.80601
1.17023
0.994958
0.839063
0.680367
0.520725
0.36081
0.200616
0.0366507
1.74349
1.79256
1.19142
0.997794
0.83903
0.680236
0.520673
0.360784
0.20051
0.0358957
1.74559
1.78153
1.20862
1.00034
0.839006
0.680114
0.520623
0.360757
0.200378
0.0348582
1.75077
1.77284
1.22215
1.00245
0.838968
0.68
0.520577
0.360731
0.200231
0.0335105
1.75844
1.76644
1.23228
1.00404
0.838894
0.679892
0.520534
0.360706
0.20008
0.0318177
1.76673
1.76227
1.23927
1.00503
0.838767
0.679789
0.520497
0.360685
0.199939
0.0297372
1.77289
1.76034
1.24331
1.00538
0.838581
0.679693
0.520465
0.360669
0.199831
0.027229
1.77618
1.76036
1.24439
1.0051
0.838345
0.679607
0.52044
0.360659
0.199782
0.0243966

VECTORS velocity float
0 0 0
0 0 0
0.833862 -0.0337052 0.000425906
0.705357 -0.00375754 0.000453056
0.748527 -0.000815216 5.84956e-05
0.758105 -0.000177698 1.18214e-05
0.760214 -4.03531e-05 2.48263e-06
0.760713 -1.01655e-05 -1.29105e-06
0.761088 -1.4152e-05 -2.515e-05
0.771032 -0.000681169 -0.000572881
0 0 0
0 0 0
-0.170729 -0.100456 0.000535515
0.712781 -0.0133953 0.000355742
0.778614 -0.00254399 6.50519e-05
0.789291 -0.000548737 1.33878e-05
0.791582 -0.000124544 2.81831e-06
0.792122 -3.13313e-05 -1.27464e-06
0.792527 -4.37514e-05 -2.67201e-05
0.795315 -0.00129114 -0.000642376
0 0 0
0 0 0
0.850172 -0.169534 0.00172891
0.738138 -0.0228797 0.00029897
0.780756 -0.00429347 5.77319e-05
0.790603 -0.000926166 1.27784e-05
0.792786 -0.00021035 2.73346e-06
0.793302 -5.27022e-05 -1.33469e-06
0.793649 -6.88686e-05 -2.78037e-05
0.796134 -0.00111692 -0.000655908
0 0 0
0 0 0
-0.155669 -0.240245 0.000881201
0.729655 -0.0310164 0.000124919
0.781802 -0.00589954 5.10753e-05
0.790876 -0.00127887 1.17075e-05
0.792877 -0.000290981 2.52362e-06
0.793352 -7.2419e-05 -1.42162e-06
0.793642 -8.32186e-05 -2.85215e-05
0.796212 -0.0009205 -0.000662935
0.455681 -0.0194252 -0.041938
0.927713 0.00346266 -0.0206108
0.861432 -0.2666 0.010235
0.75217 -0.0383639 0.000602726
0.783529 -0.00731827 5.26366e-05
0.791182 -0.00159571 1.03998e-05
0.792944 -0.000363975 2.22902e-06
0.793365 -8.98371e-05 -1.52187e-06
0.793605 -8.86719e-05 -2.89579e-05
0.796259 -0.000743709 -0.000666976
0.520101 -0.0521866 -0.0482914
0.998487 0.00501473 -0.0168924
0.928547 -0.245981 0.0101092
0.767793 -0.0428356 0.000762688
0.785448 -0.0084819 4.98202e-05
0.791545 -0.00186792 8.7687e-06
0.793023 -0.000427422 1.86227e-06
0.793379 -0.000104517 -1.63336e-06
0.793577 -8.71601e-05 -2.92476e-05
0.796296 -0.000585193 -0.000669421
0.564169 -0.0719109 -0.0549693
0.994494 0.000653334 -0.0134177
0.93042 -0.221024 0.00581238
0.779349 -0.0452201 0.000535478
0.787486 -0.00936994 3.87292e-05
0.791956 -0.00208869 6.84164e-06
0.793114 -0.000479717 1.44127e-06
0.793397 -0.000116132 -1.75194e-06
0.793557 -8.02249e-05 -2.94449e-05
0.796326 -0.000441496 -0.000670921
0.601621 -0.0784719 -0.0615314
0.988525 -0.00378627 -0.0115264
0.92851 -0.19626 0.00330074
0.789206 -0.0459416 0.000341371
0.789593 -0.0099721 2.70376e-05
0.7924 -0.00225297 4.79746e-06
0.793213 -0.000519576 9.8339e-07
0.793418 -0.000124463 -1.87431e-06
0.793544 -6.91385e-05 -2.95808e-05
0.796349 -0.000309114 -0.000671835
0.63212 -0.0735941 -0.0673902
0.983507 -0.00697642 -0.0105853
0.926601 -0.172877 0.00180905
0.797824 -0.0453439 0.000203504
0.7917 -0.01029 1.57505e-05
0.792866 -0.00235756 2.71676e-06
0.793319 -0.000546067 5.0398e-07
0.793441 -0.000129391 -1.99745e-06
0.793538 -5.49845e-05 -2.96729e-05
0.796364 -0.000184647 -0.000672361
0.655361 -0.0594301 -0.0721488
0.979136 -0.00852006 -0.0101488
0.924851 -0.151183 0.000863451
0.805312 -0.0436964 0.000105376
0.793752 -0.0103342 5.57043e-06
0.79334 -0.00240107 6.70317e-07
0.793428 -0.000558625 1.71518e-08
0.793465 -0.000130894 -2.11838e-06